calculator: dftbp
length_unit: au
nqpoint: 255    
npath: 5      
segment_nqpoint:
- 51
- 51
- 51
- 51
- 51
reciprocal_lattice:
- [   0.09607562,   0.09607562,  -0.09607562 ] # a*
- [  -0.09607562,   0.09607562,   0.09607562 ] # b*
- [   0.09607562,  -0.09607562,   0.09607562 ] # c*
natom: 3      
lattice:
- [     5.204233797284802,     5.204233797284802,     0.000000000000000 ] # a
- [     0.000000000000000,     5.204233797284802,     5.204233797284802 ] # b
- [     5.204233797284802,     0.000000000000000,     5.204233797284802 ] # c
points:
- symbol: Ce # 1
  coordinates: [  0.000000000000000,  0.000000000000000,  0.000000000000000 ]
  mass: 140.116000
- symbol: O  # 2
  coordinates: [  0.250000000000000,  0.250000000000000,  0.250000000000000 ]
  mass: 15.999400
- symbol: O  # 3
  coordinates: [  0.750000000000000,  0.750000000000000,  0.750000000000000 ]
  mass: 15.999400

phonon:
- q-position: [    0.2500000,    0.7500000,    0.5000000 ]
  distance:    0.0000000
  band:
  - # 1
    frequency:    3.4276073452
  - # 2
    frequency:    5.0469033245
  - # 3
    frequency:    5.0469033245
  - # 4
    frequency:    6.9859604168
  - # 5
    frequency:    7.8488489430
  - # 6
    frequency:   12.4354003707
  - # 7
    frequency:   12.4354003707
  - # 8
    frequency:   16.8354949070
  - # 9
    frequency:   17.2008689597

- q-position: [    0.2550000,    0.7450000,    0.5000000 ]
  distance:    0.0013587
  band:
  - # 1
    frequency:    3.4264968037
  - # 2
    frequency:    5.0450489525
  - # 3
    frequency:    5.0475810733
  - # 4
    frequency:    6.9902333235
  - # 5
    frequency:    7.8519222553
  - # 6
    frequency:   12.4346788721
  - # 7
    frequency:   12.4374554250
  - # 8
    frequency:   16.8337163092
  - # 9
    frequency:   17.1992587267

- q-position: [    0.2600000,    0.7400000,    0.5000000 ]
  distance:    0.0027174
  band:
  - # 1
    frequency:    3.4231767724
  - # 2
    frequency:    5.0394938314
  - # 3
    frequency:    5.0496261428
  - # 4
    frequency:    7.0030134360
  - # 5
    frequency:    7.8611237149
  - # 6
    frequency:   12.4325180038
  - # 7
    frequency:   12.4436049041
  - # 8
    frequency:   16.8283817831
  - # 9
    frequency:   17.1944357091

- q-position: [    0.2650000,    0.7350000,    0.5000000 ]
  distance:    0.0040761
  band:
  - # 1
    frequency:    3.4176819648
  - # 2
    frequency:    5.0302616444
  - # 3
    frequency:    5.0530721868
  - # 4
    frequency:    7.0241869996
  - # 5
    frequency:    7.8763983498
  - # 6
    frequency:   12.4289286451
  - # 7
    frequency:   12.4538018591
  - # 8
    frequency:   16.8194951303
  - # 9
    frequency:   17.1864229680

- q-position: [    0.2700000,    0.7300000,    0.5000000 ]
  distance:    0.0054349
  band:
  - # 1
    frequency:    3.4100699794
  - # 2
    frequency:    5.0173908949
  - # 3
    frequency:    5.0579695588
  - # 4
    frequency:    7.0535710258
  - # 5
    frequency:    7.8976560344
  - # 6
    frequency:   12.4239289188
  - # 7
    frequency:   12.4679683815
  - # 8
    frequency:   16.8070626842
  - # 9
    frequency:   17.1752589929

- q-position: [    0.2750000,    0.7250000,    0.5000000 ]
  distance:    0.0067936
  band:
  - # 1
    frequency:    3.4004207909
  - # 2
    frequency:    5.0009335708
  - # 3
    frequency:    5.0643777418
  - # 4
    frequency:    7.0909222633
  - # 5
    frequency:    7.9247735994
  - # 6
    frequency:   12.4175441768
  - # 7
    frequency:   12.4859961040
  - # 8
    frequency:   16.7910933057
  - # 9
    frequency:   17.1609977846

- q-position: [    0.2800000,    0.7200000,    0.5000000 ]
  distance:    0.0081523
  band:
  - # 1
    frequency:    3.3888358352
  - # 2
    frequency:    4.9809534891
  - # 3
    frequency:    5.0723565473
  - # 4
    frequency:    7.1359481121
  - # 5
    frequency:    7.9575975453
  - # 6
    frequency:   12.4098069828
  - # 7
    frequency:   12.5077468810
  - # 8
    frequency:   16.7715983784
  - # 9
    frequency:   17.1437089687

- q-position: [    0.2850000,    0.7150000,    0.5000000 ]
  distance:    0.0095110
  band:
  - # 1
    frequency:    3.3754365675
  - # 2
    frequency:    4.9575244893
  - # 3
    frequency:    5.0819573600
  - # 4
    frequency:    7.1883182870
  - # 5
    frequency:    7.9959471658
  - # 6
    frequency:   12.4007570915
  - # 7
    frequency:   12.5330536328
  - # 8
    frequency:   16.7485918017
  - # 9
    frequency:   17.1234779425

- q-position: [    0.2900000,    0.7100000,    0.5000000 ]
  distance:    0.0108697
  band:
  - # 1
    frequency:    3.3603624226
  - # 2
    frequency:    4.9307286401
  - # 3
    frequency:    5.0932155154
  - # 4
    frequency:    7.2476761563
  - # 5
    frequency:    8.0396178847
  - # 6
    frequency:   12.3904414277
  - # 7
    frequency:   12.5617213315
  - # 8
    frequency:   16.7220899832
  - # 9
    frequency:   17.1004060507

- q-position: [    0.2950000,    0.7050000,    0.5000000 ]
  distance:    0.0122284
  band:
  - # 1
    frequency:    3.3437681890
  - # 2
    frequency:    4.9006546024
  - # 3
    frequency:    5.1061445534
  - # 4
    frequency:    7.3136489490
  - # 5
    frequency:    8.0883846329
  - # 6
    frequency:   12.3789140682
  - # 7
    frequency:   12.5935281065
  - # 8
    frequency:   16.6921118304
  - # 9
    frequency:   17.0746107892

- q-position: [    0.3000000,    0.7000000,    0.5000000 ]
  distance:    0.0135871
  band:
  - # 1
    frequency:    3.3258208837
  - # 2
    frequency:    4.8673962507
  - # 3
    frequency:    5.1207326923
  - # 4
    frequency:    7.3858563370
  - # 5
    frequency:    8.1420051233
  - # 6
    frequency:   12.3662362288
  - # 7
    frequency:   12.6282264460
  - # 8
    frequency:   16.6586787421
  - # 9
    frequency:   17.0462260320

- q-position: [    0.3050000,    0.6950000,    0.5000000 ]
  distance:    0.0149459
  band:
  - # 1
    frequency:    3.3066962850
  - # 2
    frequency:    4.8310516165
  - # 3
    frequency:    5.1369415075
  - # 4
    frequency:    7.4639171920
  - # 5
    frequency:    8.2002229251
  - # 6
    frequency:   12.3524762631
  - # 7
    frequency:   12.6655444729
  - # 8
    frequency:   16.6218145988
  - # 9
    frequency:   17.0154022736

- q-position: [    0.3100000,    0.6900000,    0.5000000 ]
  distance:    0.0163046
  band:
  - # 1
    frequency:    3.2865753156
  - # 2
    frequency:    4.7917221766
  - # 3
    frequency:    5.1547065395
  - # 4
    frequency:    7.5474545433
  - # 5
    frequency:    8.2627702777
  - # 6
    frequency:   12.3377096778
  - # 7
    frequency:   12.7051872789
  - # 8
    frequency:   16.5815457551
  - # 9
    frequency:   16.9823068771

- q-position: [    0.3150000,    0.6850000,    0.5000000 ]
  distance:    0.0176633
  band:
  - # 1
    frequency:    3.2656404757
  - # 2
    frequency:    4.7495124763
  - # 3
    frequency:    5.1739394043
  - # 4
    frequency:    7.6360989111
  - # 5
    frequency:    8.3293706163
  - # 6
    frequency:   12.3220191720
  - # 7
    frequency:   12.7468383025
  - # 8
    frequency:   16.5379010314
  - # 9
    frequency:   16.9471243127

- q-position: [    0.3200000,    0.6800000,    0.5000000 ]
  distance:    0.0190220
  band:
  - # 1
    frequency:    3.2440725019
  - # 2
    frequency:    4.7045300576
  - # 3
    frequency:    5.1945309319
  - # 4
    frequency:    7.7294902628
  - # 5
    frequency:    8.3997408072
  - # 6
    frequency:   12.3054947116
  - # 7
    frequency:   12.7901607514
  - # 8
    frequency:   16.4909117080
  - # 9
    frequency:   16.9100563623

- q-position: [    0.3250000,    0.6750000,    0.5000000 ]
  distance:    0.0203807
  band:
  - # 1
    frequency:    3.2220473890
  - # 2
    frequency:    4.6568856485
  - # 3
    frequency:    5.2163548884
  - # 4
    frequency:    7.8272788599
  - # 5
    frequency:    8.4735931070
  - # 6
    frequency:   12.2882336493
  - # 7
    frequency:   12.8347990750
  - # 8
    frequency:   16.4406115215
  - # 9
    frequency:   16.8713222610

- q-position: [    0.3300000,    0.6700000,    0.5000000 ]
  distance:    0.0217394
  band:
  - # 1
    frequency:    3.1997338624
  - # 2
    frequency:    4.6066935636
  - # 3
    frequency:    5.2392719052
  - # 4
    frequency:    7.9291252411
  - # 5
    frequency:    8.5506368643
  - # 6
    frequency:   12.2703409074
  - # 7
    frequency:   12.8803805109
  - # 8
    frequency:   16.3870366638
  - # 9
    frequency:   16.8311587329

- q-position: [    0.3350000,    0.6650000,    0.5000000 ]
  distance:    0.0230981
  band:
  - # 1
    frequency:    3.1772913408
  - # 2
    frequency:    4.5540722704
  - # 3
    frequency:    5.2631333340
  - # 4
    frequency:    8.0346995504
  - # 5
    frequency:    8.6305799898
  - # 6
    frequency:   12.2519292415
  - # 7
    frequency:   12.9265167465
  - # 8
    frequency:   16.3302257853
  - # 9
    frequency:   16.7898198628

- q-position: [    0.3400000,    0.6600000,    0.5000000 ]
  distance:    0.0244569
  band:
  - # 1
    frequency:    3.1548683912
  - # 2
    frequency:    4.4991450772
  - # 3
    frequency:    5.2877848304
  - # 4
    frequency:    8.1436803696
  - # 5
    frequency:    8.7131302145
  - # 6
    frequency:   12.2331196104
  - # 7
    frequency:   12.9728057576
  - # 8
    frequency:   16.2702200033
  - # 9
    frequency:   16.7475767324

- q-position: [    0.3450000,    0.6550000,    0.5000000 ]
  distance:    0.0258156
  band:
  - # 1
    frequency:    3.1326016450
  - # 2
    frequency:    4.4420409100
  - # 3
    frequency:    5.3130695528
  - # 4
    frequency:    8.2557531656
  - # 5
    frequency:    8.7979961523
  - # 6
    frequency:   12.2140416825
  - # 7
    frequency:   13.0188339076
  - # 8
    frequency:   16.2070629165
  - # 9
    frequency:   16.7047167282

- q-position: [    0.3500000,    0.6500000,    0.5000000 ]
  distance:    0.0271743
  band:
  - # 1
    frequency:    3.1106151297
  - # 2
    frequency:    4.3828951475
  - # 3
    frequency:    5.3388309198
  - # 4
    frequency:    8.3706084180
  - # 5
    frequency:    8.8848881811
  - # 6
    frequency:   12.1948345186
  - # 7
    frequency:   13.0641784190
  - # 8
    frequency:   16.1408006280
  - # 9
    frequency:   16.6615424059

- q-position: [    0.3550000,    0.6450000,    0.5000000 ]
  distance:    0.0285330
  band:
  - # 1
    frequency:    3.0890199558
  - # 2
    frequency:    4.3218504970
  - # 3
    frequency:    5.3649149166
  - # 4
    frequency:    8.4879394518
  - # 5
    frequency:    8.9735191460
  - # 6
    frequency:   12.1756474779
  - # 7
    frequency:   13.1084103519
  - # 8
    frequency:   16.0714817768
  - # 9
    frequency:   16.6183697803

- q-position: [    0.3600000,    0.6400000,    0.5000000 ]
  distance:    0.0298917
  band:
  - # 1
    frequency:    3.0679143019
  - # 2
    frequency:    4.2590578939
  - # 3
    frequency:    5.3911719703
  - # 4
    frequency:    8.6074399608
  - # 5
    frequency:    9.0636048883
  - # 6
    frequency:   12.1566414095
  - # 7
    frequency:   13.1510982432
  - # 8
    frequency:   15.9991575823
  - # 9
    frequency:   16.5755258887

- q-position: [    0.3650000,    0.6350000,    0.5000000 ]
  distance:    0.0312504
  band:
  - # 1
    frequency:    3.0473836387
  - # 2
    frequency:    4.1946774158
  - # 3
    frequency:    5.4174584303
  - # 4
    frequency:    8.7288011781
  - # 5
    frequency:    9.1548645954
  - # 6
    frequency:   12.1379902033
  - # 7
    frequency:   13.1918125755
  - # 8
    frequency:   15.9238819014
  - # 9
    frequency:   16.5333454741

- q-position: [    0.3700000,    0.6300000,    0.5000000 ]
  distance:    0.0326091
  band:
  - # 1
    frequency:    3.0275011408
  - # 2
    frequency:    4.1288792032
  - # 3
    frequency:    5.4436376980
  - # 4
    frequency:    8.8517086167
  - # 5
    frequency:    9.2470209644
  - # 6
    frequency:   12.1198827946
  - # 7
    frequency:   13.2301312329
  - # 8
    frequency:   15.8457113043
  - # 9
    frequency:   16.4921666389

- q-position: [    0.3750000,    0.6250000,    0.5000000 ]
  distance:    0.0339679
  band:
  - # 1
    frequency:    3.0083282433
  - # 2
    frequency:    4.0618443815
  - # 3
    frequency:    5.4695810550
  - # 4
    frequency:    8.9758382728
  - # 5
    frequency:    9.3398001694
  - # 6
    frequency:   12.1025257333
  - # 7
    frequency:   13.2656460776
  - # 8
    frequency:   15.7647051689
  - # 9
    frequency:   16.4523253604

- q-position: [    0.3800000,    0.6200000,    0.5000000 ]
  distance:    0.0353266
  band:
  - # 1
    frequency:    2.9899153040
  - # 2
    frequency:    3.9937659773
  - # 3
    frequency:    5.4951682333
  - # 4
    frequency:    9.1008521626
  - # 5
    frequency:    9.4329316160
  - # 6
    frequency:   12.0861464524
  - # 7
    frequency:   13.2979707119
  - # 8
    frequency:   15.6809258012
  - # 9
    frequency:   16.4141488211

- q-position: [    0.3850000,    0.6150000,    0.5000000 ]
  distance:    0.0366853
  band:
  - # 1
    frequency:    2.9723023411
  - # 2
    frequency:    3.9248498202
  - # 3
    frequency:    5.5202877698
  - # 4
    frequency:    9.2263930322
  - # 5
    frequency:    9.5261474680
  - # 6
    frequency:   12.0709973878
  - # 7
    frequency:   13.3267493900
  - # 8
    frequency:   15.5944385849
  - # 9
    frequency:   16.3779476197

- q-position: [    0.3900000,    0.6100000,    0.5000000 ]
  distance:    0.0380440
  band:
  - # 1
    frequency:    2.9555198235
  - # 2
    frequency:    3.8553154207
  - # 3
    frequency:    5.5448371814
  - # 4
    frequency:    9.3520780751
  - # 5
    frequency:    9.6191819239
  - # 6
    frequency:   12.0573611123
  - # 7
    frequency:   13.3516668993
  - # 8
    frequency:   15.5053121664
  - # 9
    frequency:   16.3440070708

- q-position: [    0.3950000,    0.6050000,    0.5000000 ]
  distance:    0.0394027
  band:
  - # 1
    frequency:    2.9395894913
  - # 2
    frequency:    3.7853968050
  - # 3
    frequency:    5.5687229911
  - # 4
    frequency:    9.4774914941
  - # 5
    frequency:    9.7117702222
  - # 6
    frequency:   12.0455566349
  - # 7
    frequency:   13.3724590614
  - # 8
    frequency:   15.4136186846
  - # 9
    frequency:   16.3125779798

- q-position: [    0.4000000,    0.6000000,    0.5000000 ]
  distance:    0.0407614
  band:
  - # 1
    frequency:    2.9245251939
  - # 2
    frequency:    3.7153432856
  - # 3
    frequency:    5.5918606308
  - # 4
    frequency:    9.6021758056
  - # 5
    frequency:    9.8036473516
  - # 6
    frequency:   12.0359469597
  - # 7
    frequency:   13.3889233204
  - # 8
    frequency:   15.3194340526
  - # 9
    frequency:   16.2838674592

- q-position: [    0.4050000,    0.5950000,    0.5000000 ]
  distance:    0.0421201
  band:
  - # 1
    frequency:    2.9103337312
  - # 2
    frequency:    3.6454201349
  - # 3
    frequency:    5.6141742430
  - # 4
    frequency:    9.7256219194
  - # 5
    frequency:    9.8945464411
  - # 6
    frequency:   12.0289478556
  - # 7
    frequency:   13.4009287393
  - # 8
    frequency:   15.2228383058
  - # 9
    frequency:   16.2580305041

- q-position: [    0.4100000,    0.5900000,    0.5000000 ]
  distance:    0.0434789
  band:
  - # 1
    frequency:    2.8970156890
  - # 2
    frequency:    3.5759091209
  - # 3
    frequency:    5.6355963967
  - # 4
    frequency:    9.8472583255
  - # 5
    frequency:    9.9841968086
  - # 6
    frequency:   12.0250374915
  - # 7
    frequency:   13.4084246451
  - # 8
    frequency:   15.1239160305
  - # 9
    frequency:   16.2351631219

- q-position: [    0.4150000,    0.5850000,    0.5000000 ]
  distance:    0.0448376
  band:
  - # 1
    frequency:    2.8845662605
  - # 2
    frequency:    3.5071088521
  - # 3
    frequency:    5.6560677338
  - # 4
    frequency:    9.9664402539
  - # 5
    frequency:   10.0723216515
  - # 6
    frequency:   12.0247660488
  - # 7
    frequency:   13.4114471901
  - # 8
    frequency:   15.0227568942
  - # 9
    frequency:   16.2152977800

- q-position: [    0.4200000,    0.5800000,    0.5000000 ]
  distance:    0.0461963
  band:
  - # 1
    frequency:    2.8729760472
  - # 2
    frequency:    3.4393348642
  - # 3
    frequency:    5.6755365563
  - # 4
    frequency:   10.0824405768
  - # 5
    frequency:   10.1586353744
  - # 6
    frequency:   12.0287635169
  - # 7
    frequency:   13.4101232497
  - # 8
    frequency:   14.9194563025
  - # 9
    frequency:   16.1984017694

- q-position: [    0.4250000,    0.5750000,    0.5000000 ]
  distance:    0.0475550
  band:
  - # 1
    frequency:    2.8622318336
  - # 2
    frequency:    3.3729193694
  - # 3
    frequency:    5.6939583638
  - # 4
    frequency:   10.1944455657
  - # 5
    frequency:   10.2428405680
  - # 6
    frequency:   12.0377425228
  - # 7
    frequency:   13.4046713362
  - # 8
    frequency:   14.8141162213
  - # 9
    frequency:   16.1843788074

- q-position: [    0.4300000,    0.5700000,    0.5000000 ]
  distance:    0.0489137
  band:
  - # 1
    frequency:    2.8523173317
  - # 2
    frequency:    3.3082105735
  - # 3
    frequency:    5.7112953523
  - # 4
    frequency:   10.3015603228
  - # 5
    frequency:   10.3246246880
  - # 6
    frequency:   12.0524913260
  - # 7
    frequency:   13.3953995265
  - # 8
    frequency:   14.7068462104
  - # 9
    frequency:   16.1730738473

- q-position: [    0.4350000,    0.5650000,    0.5000000 ]
  distance:    0.0502724
  band:
  - # 1
    frequency:    2.8432138903
  - # 2
    frequency:    3.2455714562
  - # 3
    frequency:    5.7275158792
  - # 4
    frequency:   10.4028302593
  - # 5
    frequency:   10.4036565317
  - # 6
    frequency:   12.0738505369
  - # 7
    frequency:   13.3827007013
  - # 8
    frequency:   14.5977647407
  - # 9
    frequency:   16.1642807150

- q-position: [    0.4400000,    0.5600000,    0.5000000 ]
  distance:    0.0516312
  band:
  - # 1
    frequency:    2.8349011673
  - # 2
    frequency:    3.1853778983
  - # 3
    frequency:    5.7425939050
  - # 4
    frequency:   10.4795826856
  - # 5
    frequency:   10.4972851507
  - # 6
    frequency:   12.1026669260
  - # 7
    frequency:   13.3670456075
  - # 8
    frequency:   14.4870008967
  - # 9
    frequency:   16.1577519035

- q-position: [    0.4450000,    0.5550000,    0.5000000 ]
  distance:    0.0529899
  band:
  - # 1
    frequency:    2.8273577611
  - # 2
    frequency:    3.1280160433
  - # 3
    frequency:    5.7565084183
  - # 4
    frequency:   10.5520242213
  - # 5
    frequency:   10.5840090682
  - # 6
    frequency:   12.1397208633
  - # 7
    frequency:   13.3489743120
  - # 8
    frequency:   14.3746966215
  - # 9
    frequency:   16.1532096941

- q-position: [    0.4500000,    0.5500000,    0.5000000 ]
  distance:    0.0543486
  band:
  - # 1
    frequency:    2.8205617993
  - # 2
    frequency:    3.0738787845
  - # 3
    frequency:    5.7692428518
  - # 4
    frequency:   10.6205740597
  - # 5
    frequency:   10.6622312081
  - # 6
    frequency:   12.1856321169
  - # 7
    frequency:   13.3290865043
  - # 8
    frequency:   14.2610097570
  - # 9
    frequency:   16.1503577432

- q-position: [    0.4550000,    0.5450000,    0.5000000 ]
  distance:    0.0557073
  band:
  - # 1
    frequency:    2.8144914832
  - # 2
    frequency:    3.0233612959
  - # 3
    frequency:    5.7807844988
  - # 4
    frequency:   10.6847955902
  - # 5
    frequency:   10.7314204162
  - # 6
    frequency:   12.2407607698
  - # 7
    frequency:   13.3080308404
  - # 8
    frequency:   14.1461183165
  - # 9
    frequency:   16.1488923692

- q-position: [    0.4600000,    0.5400000,    0.5000000 ]
  distance:    0.0570660
  band:
  - # 1
    frequency:    2.8091255865
  - # 2
    frequency:    2.9768555662
  - # 3
    frequency:    5.7911239374
  - # 4
    frequency:   10.7442233260
  - # 5
    frequency:   10.7913561684
  - # 6
    frequency:   12.3051296936
  - # 7
    frequency:   13.2864931540
  - # 8
    frequency:   14.0302267891
  - # 9
    frequency:   16.1485129461

- q-position: [    0.4650000,    0.5350000,    0.5000000 ]
  distance:    0.0584247
  band:
  - # 1
    frequency:    2.8044439065
  - # 2
    frequency:    2.9347439535
  - # 3
    frequency:    5.8002544733
  - # 4
    frequency:   10.7983665411
  - # 5
    frequency:   10.8421497649
  - # 6
    frequency:   12.3783932039
  - # 7
    frequency:   13.2651829857
  - # 8
    frequency:   13.9135760904
  - # 9
    frequency:   16.1489310230

- q-position: [    0.4700000,    0.5300000,    0.5000000 ]
  distance:    0.0597834
  band:
  - # 1
    frequency:    2.8004276692
  - # 2
    frequency:    2.8973918632
  - # 3
    frequency:    5.8081716084
  - # 4
    frequency:   10.8467169165
  - # 5
    frequency:   10.8842051538
  - # 6
    frequency:   12.4598589099
  - # 7
    frequency:   13.2448175959
  - # 8
    frequency:   13.7964607258
  - # 9
    frequency:   16.1498779867

- q-position: [    0.4750000,    0.5250000,    0.5000000 ]
  distance:    0.0611422
  band:
  - # 1
    frequency:    2.7970598852
  - # 2
    frequency:    2.8651397490
  - # 3
    frequency:    5.8148725458
  - # 4
    frequency:   10.8887611067
  - # 5
    frequency:   10.9181312356
  - # 6
    frequency:   12.5485420332
  - # 7
    frequency:   13.2261025785
  - # 8
    frequency:   13.6792620374
  - # 9
    frequency:   16.1511112533

- q-position: [    0.4800000,    0.5200000,    0.5000000 ]
  distance:    0.0625009
  band:
  - # 1
    frequency:    2.7943256586
  - # 2
    frequency:    2.8382947379
  - # 3
    frequency:    5.8203557394
  - # 4
    frequency:   10.9239987142
  - # 5
    frequency:   10.9446326581
  - # 6
    frequency:   12.6431997893
  - # 7
    frequency:   13.2097084963
  - # 8
    frequency:   13.5625229255
  - # 9
    frequency:   16.1524190899

- q-position: [    0.4850000,    0.5150000,    0.5000000 ]
  distance:    0.0638596
  band:
  - # 1
    frequency:    2.7922124477
  - # 2
    frequency:    2.8171222869
  - # 3
    frequency:    5.8246204962
  - # 4
    frequency:   10.9519653318
  - # 5
    frequency:   10.9644063722
  - # 6
    frequency:   12.7422313438
  - # 7
    frequency:   13.1962437172
  - # 8
    frequency:   13.4471512599
  - # 9
    frequency:   16.1536242373

- q-position: [    0.4900000,    0.5100000,    0.5000000 ]
  distance:    0.0652183
  band:
  - # 1
    frequency:    2.7907102777
  - # 2
    frequency:    2.8018383479
  - # 3
    frequency:    5.8276666399
  - # 4
    frequency:   10.9722591146
  - # 5
    frequency:   10.9780605321
  - # 6
    frequency:   12.8430416048
  - # 7
    frequency:   13.1862248016
  - # 8
    frequency:   13.3351371302
  - # 9
    frequency:   16.1545865307

- q-position: [    0.4950000,    0.5050000,    0.5000000 ]
  distance:    0.0665770
  band:
  - # 1
    frequency:    2.7898119056
  - # 2
    frequency:    2.7926025562
  - # 3
    frequency:    5.8294942418
  - # 4
    frequency:   10.9845680009
  - # 5
    frequency:   10.9860598700
  - # 6
    frequency:   12.9384283031
  - # 7
    frequency:   13.1800471360
  - # 8
    frequency:   13.2332203510
  - # 9
    frequency:   16.1552047112

- q-position: [    0.5000000,    0.5000000,    0.5000000 ]
  distance:    0.0679357
  band:
  - # 1
    frequency:    2.7895129390
  - # 2
    frequency:    2.7895129390
  - # 3
    frequency:    5.8301034243
  - # 4
    frequency:   10.9886936568
  - # 5
    frequency:   10.9886936568
  - # 6
    frequency:   12.9915448881
  - # 7
    frequency:   13.1779595781
  - # 8
    frequency:   13.1779595781
  - # 9
    frequency:   16.1554175929

- q-position: [    0.5000000,    0.5000000,    0.5000000 ]
  distance:    0.0679357
  band:
  - # 1
    frequency:    2.7895129390
  - # 2
    frequency:    2.7895129390
  - # 3
    frequency:    5.8301034243
  - # 4
    frequency:   10.9886936568
  - # 5
    frequency:   10.9886936568
  - # 6
    frequency:   12.9915448881
  - # 7
    frequency:   13.1779595781
  - # 8
    frequency:   13.1779595781
  - # 9
    frequency:   16.1554175929

- q-position: [    0.4900000,    0.4900000,    0.4900000 ]
  distance:    0.0695998
  band:
  - # 1
    frequency:    2.7890771535
  - # 2
    frequency:    2.7890771535
  - # 3
    frequency:    5.8276955237
  - # 4
    frequency:   10.9882536457
  - # 5
    frequency:   10.9882536457
  - # 6
    frequency:   12.9897889971
  - # 7
    frequency:   13.1780080750
  - # 8
    frequency:   13.1780080750
  - # 9
    frequency:   16.1524291887

- q-position: [    0.4800000,    0.4800000,    0.4800000 ]
  distance:    0.0712639
  band:
  - # 1
    frequency:    2.7877641911
  - # 2
    frequency:    2.7877641911
  - # 3
    frequency:    5.8204729664
  - # 4
    frequency:   10.9868733500
  - # 5
    frequency:   10.9868733500
  - # 6
    frequency:   12.9844935248
  - # 7
    frequency:   13.1782064386
  - # 8
    frequency:   13.1782064386
  - # 9
    frequency:   16.1435001120

- q-position: [    0.4700000,    0.4700000,    0.4700000 ]
  distance:    0.0729280
  band:
  - # 1
    frequency:    2.7855573103
  - # 2
    frequency:    2.7855573103
  - # 3
    frequency:    5.8084391894
  - # 4
    frequency:   10.9843736067
  - # 5
    frequency:   10.9843736067
  - # 6
    frequency:   12.9755750636
  - # 7
    frequency:   13.1787118316
  - # 8
    frequency:   13.1787118316
  - # 9
    frequency:   16.1287388080

- q-position: [    0.4600000,    0.4600000,    0.4600000 ]
  distance:    0.0745920
  band:
  - # 1
    frequency:    2.7824288603
  - # 2
    frequency:    2.7824288603
  - # 3
    frequency:    5.7915999298
  - # 4
    frequency:   10.9804613783
  - # 5
    frequency:   10.9804613783
  - # 6
    frequency:   12.9628946143
  - # 7
    frequency:   13.1797811843
  - # 8
    frequency:   13.1797811843
  - # 9
    frequency:   16.1083260997

- q-position: [    0.4500000,    0.4500000,    0.4500000 ]
  distance:    0.0762561
  band:
  - # 1
    frequency:    2.7783406429
  - # 2
    frequency:    2.7783406429
  - # 3
    frequency:    5.7699632351
  - # 4
    frequency:   10.9747386018
  - # 5
    frequency:   10.9747386018
  - # 6
    frequency:   12.9462577666
  - # 7
    frequency:   13.1817631745
  - # 8
    frequency:   13.1817631745
  - # 9
    frequency:   16.0825151525

- q-position: [    0.4400000,    0.4400000,    0.4400000 ]
  distance:    0.0779202
  band:
  - # 1
    frequency:    2.7732443887
  - # 2
    frequency:    2.7732443887
  - # 3
    frequency:    5.7435394703
  - # 4
    frequency:   10.9667154370
  - # 5
    frequency:   10.9667154370
  - # 6
    frequency:   12.9254152734
  - # 7
    frequency:   13.1850861212
  - # 8
    frequency:   13.1850861212
  - # 9
    frequency:   16.0516311073

- q-position: [    0.4300000,    0.4300000,    0.4300000 ]
  distance:    0.0795843
  band:
  - # 1
    frequency:    2.7670823208
  - # 2
    frequency:    2.7670823208
  - # 3
    frequency:    5.7123413146
  - # 4
    frequency:   10.9558284483
  - # 5
    frequency:   10.9558284483
  - # 6
    frequency:   12.9000643506
  - # 7
    frequency:   13.1902412377
  - # 8
    frequency:   13.1902412377
  - # 9
    frequency:   16.0160700579

- q-position: [    0.4200000,    0.4200000,    0.4200000 ]
  distance:    0.0812484
  band:
  - # 1
    frequency:    2.7597877752
  - # 2
    frequency:    2.7597877752
  - # 3
    frequency:    5.6763837411
  - # 4
    frequency:   10.9414639444
  - # 5
    frequency:   10.9414639444
  - # 6
    frequency:   12.8698511283
  - # 7
    frequency:   13.1977609967
  - # 8
    frequency:   13.1977609967
  - # 9
    frequency:   15.9762969516

- q-position: [    0.4100000,    0.4100000,    0.4100000 ]
  distance:    0.0829124
  band:
  - # 1
    frequency:    2.7512858444
  - # 2
    frequency:    2.7512858444
  - # 3
    frequency:    5.6356839676
  - # 4
    frequency:   10.9229860908
  - # 5
    frequency:   10.9229860908
  - # 6
    frequency:   12.8343747600
  - # 7
    frequency:   13.2081929634
  - # 8
    frequency:   13.2081929634
  - # 9
    frequency:   15.9328419135

- q-position: [    0.4000000,    0.4000000,    0.4000000 ]
  distance:    0.0845765
  band:
  - # 1
    frequency:    2.7414940113
  - # 2
    frequency:    2.7414940113
  - # 3
    frequency:    5.5902613707
  - # 4
    frequency:   10.8997685568
  - # 5
    frequency:   10.8997685568
  - # 6
    frequency:   12.7931937479
  - # 7
    frequency:   13.2220703051
  - # 8
    frequency:   13.2220703051
  - # 9
    frequency:   15.8862944467

- q-position: [    0.3900000,    0.3900000,    0.3900000 ]
  distance:    0.0862406
  band:
  - # 1
    frequency:    2.7303227454
  - # 2
    frequency:    2.7303227454
  - # 3
    frequency:    5.5401373502
  - # 4
    frequency:   10.8712275259
  - # 5
    frequency:   10.8712275259
  - # 6
    frequency:   12.7458350232
  - # 7
    frequency:   13.2398811115
  - # 8
    frequency:   13.2398811115
  - # 9
    frequency:   15.8372949752

- q-position: [    0.3800000,    0.3800000,    0.3800000 ]
  distance:    0.0879047
  band:
  - # 1
    frequency:    2.7176760349
  - # 2
    frequency:    2.7176760349
  - # 3
    frequency:    5.4853351336
  - # 4
    frequency:   10.8368531718
  - # 5
    frequency:   10.8368531718
  - # 6
    frequency:   12.6918062123
  - # 7
    frequency:   13.2620393891
  - # 8
    frequency:   13.2620393891
  - # 9
    frequency:   15.7865233082

- q-position: [    0.3700000,    0.3700000,    0.3700000 ]
  distance:    0.0895687
  band:
  - # 1
    frequency:    2.7034518362
  - # 2
    frequency:    2.7034518362
  - # 3
    frequency:    5.4258795092
  - # 4
    frequency:   10.7962364678
  - # 5
    frequency:   10.7962364678
  - # 6
    frequency:   12.6306112842
  - # 7
    frequency:   13.2888608209
  - # 8
    frequency:   13.2888608209
  - # 9
    frequency:   15.7346838399

- q-position: [    0.3600000,    0.3600000,    0.3600000 ]
  distance:    0.0912328
  band:
  - # 1
    frequency:    2.6875424296
  - # 2
    frequency:    2.6875424296
  - # 3
    frequency:    5.3617964784
  - # 4