24   
2    

1    
  0.0070710678118655   0.0070710678118655   0.0000000000000000
  -0.0007975871   -0.0007975871   -0.0000000000
   0.0003199060    0.0003199060   -0.0000000000
  -0.0001426596    0.0001439891    0.0001759181
   0.0001439891   -0.0001426596   -0.0001759181
   0.0001439891   -0.0001426596    0.0001759181
  -0.0001426596    0.0001439891   -0.0001759181
  -0.0000319289   -0.0000319289   -0.0000000000
   0.0000207817    0.0000207817    0.0000000000
   0.0000951922    0.0000951922    0.0000367071
   0.0000980491    0.0000980491   -0.0000395724
   0.0000581407    0.0000588178    0.0000002422
  -0.0000340128   -0.0000338885    0.0000000889
   0.0000588178    0.0000581407    0.0000002422
  -0.0000338885   -0.0000340128    0.0000000889
   0.0000004428    0.0000004428   -0.0000342837
   0.0000003434    0.0000003434    0.0000344038
   0.0000004428    0.0000004428    0.0000342837
   0.0000003434    0.0000003434   -0.0000344038
  -0.0000340128   -0.0000338885   -0.0000000889
   0.0000581407    0.0000588178   -0.0000002422
  -0.0000338885   -0.0000340128   -0.0000000889
   0.0000588178    0.0000581407   -0.0000002422
   0.0000951922    0.0000951922   -0.0000367071
   0.0000980491    0.0000980491    0.0000395724

9    
  0.0070710678118655   0.0070710678118655   0.0000000000000000
   0.0000982765    0.0000982765    0.0000393856
   0.0000949432    0.0000949432   -0.0000368775
   0.0000586705    0.0000582832   -0.0000002032
  -0.0000339043   -0.0000339967   -0.0000000892
   0.0000582832    0.0000586705   -0.0000002032
  -0.0000339967   -0.0000339043   -0.0000000892
   0.0000003969    0.0000003969   -0.0000342932
   0.0000003891    0.0000003891    0.0000343936
  -0.0007742069   -0.0007742069   -0.0000010113
   0.0000819884    0.0000819884    0.0000001062
  -0.0000151763    0.0000278027    0.0000540263
   0.0000279787   -0.0000151773   -0.0000541679
   0.0000278027   -0.0000151763    0.0000540263
  -0.0000151773    0.0000279787   -0.0000541679
  -0.0000262063   -0.0000262063    0.0000000485
   0.0000271166    0.0000271166   -0.0000000325
  -0.0000040781   -0.0000040781    0.0000000647
  -0.0000333554   -0.0000333554   -0.0000004898
   0.0002311105   -0.0000489892    0.0000152310
  -0.0000482143    0.0002296652   -0.0000152574
  -0.0000489892    0.0002311105    0.0000152310
   0.0002296652   -0.0000482143   -0.0000152574
  -0.0000638453   -0.0000638453    0.0000002071
   0.0001605286    0.0001605286   -0.0000005802
