calculator: dftbp
length_unit: au
nqpoint: 255    
npath: 5      
segment_nqpoint:
- 51
- 51
- 51
- 51
- 51
reciprocal_lattice:
- [   0.09607562,   0.09607562,  -0.09607562 ] # a*
- [  -0.09607562,   0.09607562,   0.09607562 ] # b*
- [   0.09607562,  -0.09607562,   0.09607562 ] # c*
natom: 3      
lattice:
- [     5.204233797284802,     5.204233797284802,     0.000000000000000 ] # a
- [     0.000000000000000,     5.204233797284802,     5.204233797284802 ] # b
- [     5.204233797284802,     0.000000000000000,     5.204233797284802 ] # c
points:
- symbol: Ce # 1
  coordinates: [  0.000000000000000,  0.000000000000000,  0.000000000000000 ]
  mass: 140.116000
- symbol: O  # 2
  coordinates: [  0.250000000000000,  0.250000000000000,  0.250000000000000 ]
  mass: 15.999400
- symbol: O  # 3
  coordinates: [  0.750000000000000,  0.750000000000000,  0.750000000000000 ]
  mass: 15.999400

phonon:
- q-position: [    0.2500000,    0.7500000,    0.5000000 ]
  distance:    0.0000000
  band:
  - # 1
    frequency:    3.5326497039
  - # 2
    frequency:    5.0361674798
  - # 3
    frequency:    5.0361674798
  - # 4
    frequency:    6.0386595292
  - # 5
    frequency:    7.4008993718
  - # 6
    frequency:   10.9772828190
  - # 7
    frequency:   10.9772828190
  - # 8
    frequency:   14.9623606542
  - # 9
    frequency:   15.5402335288

- q-position: [    0.2550000,    0.7450000,    0.5000000 ]
  distance:    0.0013587
  band:
  - # 1
    frequency:    3.5317142756
  - # 2
    frequency:    5.0343178570
  - # 3
    frequency:    5.0362793699
  - # 4
    frequency:    6.0428822991
  - # 5
    frequency:    7.4032496786
  - # 6
    frequency:   10.9772957696
  - # 7
    frequency:   10.9787901316
  - # 8
    frequency:   14.9606313734
  - # 9
    frequency:   15.5387557922

- q-position: [    0.2600000,    0.7400000,    0.5000000 ]
  distance:    0.0027174
  band:
  - # 1
    frequency:    3.5289143811
  - # 2
    frequency:    5.0287791794
  - # 3
    frequency:    5.0366662798
  - # 4
    frequency:    6.0554812254
  - # 5
    frequency:    7.4102891490
  - # 6
    frequency:   10.9773348809
  - # 7
    frequency:   10.9833007812
  - # 8
    frequency:   14.9554447417
  - # 9
    frequency:   15.5343271268

- q-position: [    0.2650000,    0.7350000,    0.5000000 ]
  distance:    0.0040761
  band:
  - # 1
    frequency:    3.5242695312
  - # 2
    frequency:    5.0195816207
  - # 3
    frequency:    5.0374735646
  - # 4
    frequency:    6.0762563369
  - # 5
    frequency:    7.4219838437
  - # 6
    frequency:   10.9774009271
  - # 7
    frequency:   10.9907809845
  - # 8
    frequency:   14.9468043906
  - # 9
    frequency:   15.5269611765

- q-position: [    0.2700000,    0.7300000,    0.5000000 ]
  distance:    0.0054349
  band:
  - # 1
    frequency:    3.5178132854
  - # 2
    frequency:    5.0067741843
  - # 3
    frequency:    5.0389179339
  - # 4
    frequency:    6.1048993684
  - # 5
    frequency:    7.4382785217
  - # 6
    frequency:   10.9774951807
  - # 7
    frequency:   11.0011747054
  - # 8
    frequency:   14.9347163718
  - # 9
    frequency:   15.5166807174

- q-position: [    0.2750000,    0.7250000,    0.5000000 ]
  distance:    0.0067936
  band:
  - # 1
    frequency:    3.5095945098
  - # 2
    frequency:    4.9904229223
  - # 3
    frequency:    5.0412562222
  - # 4
    frequency:    6.1410244794
  - # 5
    frequency:    7.4590984818
  - # 6
    frequency:   10.9776193867
  - # 7
    frequency:   11.0144040488
  - # 8
    frequency:   14.9191891551
  - # 9
    frequency:   15.5035177123

- q-position: [    0.2800000,    0.7200000,    0.5000000 ]
  distance:    0.0081523
  band:
  - # 1
    frequency:    3.4996786051
  - # 2
    frequency:    4.9706087135
  - # 3
    frequency:    5.0447527222
  - # 4
    frequency:    6.1842007038
  - # 5
    frequency:    7.4843518771
  - # 6
    frequency:   10.9777757269
  - # 7
    frequency:   11.0303697960
  - # 8
    frequency:   14.9002336271
  - # 9
    frequency:   15.4875133885

- q-position: [    0.2850000,    0.7150000,    0.5000000 ]
  distance:    0.0095110
  band:
  - # 1
    frequency:    3.4881483250
  - # 2
    frequency:    4.9474248122
  - # 3
    frequency:    5.0496508250
  - # 4
    frequency:    6.2339807281
  - # 5
    frequency:    7.5139322949
  - # 6
    frequency:   10.9779667744
  - # 7
    frequency:   11.0489520628
  - # 8
    frequency:   14.8778630880
  - # 9
    frequency:   15.4687183402

- q-position: [    0.2900000,    0.7100000,    0.5000000 ]
  distance:    0.0108697
  band:
  - # 1
    frequency:    3.4751038680
  - # 2
    frequency:    4.9209743807
  - # 3
    frequency:    5.0561522232
  - # 4
    frequency:    6.2899230191
  - # 5
    frequency:    7.5477213959
  - # 6
    frequency:   10.9781954397
  - # 7
    frequency:   11.0700110614
  - # 8
    frequency:   14.8520932492
  - # 9
    frequency:   15.4471926567

- q-position: [    0.2950000,    0.7050000,    0.5000000 ]
  distance:    0.0122284
  band:
  - # 1
    frequency:    3.4606620554
  - # 2
    frequency:    4.8913681863
  - # 3
    frequency:    5.0644044945
  - # 4
    frequency:    6.3516066274
  - # 5
    frequency:    7.5855914399
  - # 6
    frequency:   10.9784649084
  - # 7
    frequency:   11.0933879439
  - # 8
    frequency:   14.8229422310
  - # 9
    frequency:   15.4230060778

- q-position: [    0.3000000,    0.7000000,    0.5000000 ]
  distance:    0.0135871
  band:
  - # 1
    frequency:    3.4449545649
  - # 2
    frequency:    4.8587226015
  - # 3
    frequency:    5.0744962057
  - # 4
    frequency:    6.4186395102
  - # 5
    frequency:    7.6274075646
  - # 6
    frequency:   10.9787785724
  - # 7
    frequency:   11.1189057028
  - # 8
    frequency:   14.7904305591
  - # 9
    frequency:   15.3962381791

- q-position: [    0.3050000,    0.6950000,    0.5000000 ]
  distance:    0.0149459
  band:
  - # 1
    frequency:    3.4281253370
  - # 2
    frequency:    4.8231579908
  - # 3
    frequency:    5.0864578627
  - # 4
    frequency:    6.4906618864
  - # 5
    frequency:    7.6730297402
  - # 6
    frequency:   10.9791399541
  - # 7
    frequency:   11.1463701049
  - # 8
    frequency:   14.7545811637
  - # 9
    frequency:   15.3669785867

- q-position: [    0.3100000,    0.6900000,    0.5000000 ]
  distance:    0.0163046
  band:
  - # 1
    frequency:    3.4103273808
  - # 2
    frequency:    4.7847975217
  - # 3
    frequency:    5.1002668632
  - # 4
    frequency:    6.5673461987
  - # 5
    frequency:    7.7223143656
  - # 6
    frequency:   10.9795526264
  - # 7
    frequency:   11.1755706347
  - # 8
    frequency:   14.7154193775
  - # 9
    frequency:   15.3353272244

- q-position: [    0.3150000,    0.6850000,    0.5000000 ]
  distance:    0.0176633
  band:
  - # 1
    frequency:    3.3917192612
  - # 2
    frequency:    4.7437663960
  - # 3
    frequency:    5.1158548048
  - # 4
    frequency:    6.6483950104
  - # 5
    frequency:    7.7751155137
  - # 6
    frequency:   10.9800201290
  - # 7
    frequency:   11.2062814262
  - # 8
    frequency:   14.6729729364
  - # 9
    frequency:   15.3013945919

- q-position: [    0.3200000,    0.6800000,    0.5000000 ]
  distance:    0.0190220
  band:
  - # 1
    frequency:    3.3724615491
  - # 2
    frequency:    4.7001914677
  - # 3
    frequency:    5.1331158465
  - # 4
    frequency:    6.7335378251
  - # 5
    frequency:    7.8312858587
  - # 6
    frequency:   10.9805458817
  - # 7
    frequency:   11.2382621643
  - # 8
    frequency:   14.6272719814
  - # 9
    frequency:   15.2653020739

- q-position: [    0.3250000,    0.6750000,    0.5000000 ]
  distance:    0.0203807
  band:
  - # 1
    frequency:    3.3527134768
  - # 2
    frequency:    4.6542011965
  - # 3
    frequency:    5.1519151862
  - # 4
    frequency:    6.8225274988
  - # 5
    frequency:    7.8906773347
  - # 6
    frequency:   10.9811330979
  - # 7
    frequency:   11.2712589406
  - # 8
    frequency:   14.5783490634
  - # 9
    frequency:   15.2271822753

- q-position: [    0.3300000,    0.6700000,    0.5000000 ]
  distance:    0.0217394
  band:
  - # 1
    frequency:    3.3326299749
  - # 2
    frequency:    4.6059258796
  - # 3
    frequency:    5.1720970391
  - # 4
    frequency:    6.9151366629
  - # 5
    frequency:    7.9531415818
  - # 6
    frequency:   10.9817846978
  - # 7
    frequency:   11.3050050566
  - # 8
    frequency:   14.5262391516
  - # 9
    frequency:   15.1871793776

- q-position: [    0.3350000,    0.6650000,    0.5000000 ]
  distance:    0.0230981
  band:
  - # 1
    frequency:    3.3123591977
  - # 2
    frequency:    4.5554980988
  - # 3
    frequency:    5.1934917586
  - # 4
    frequency:    7.0111543958
  - # 5
    frequency:    8.0185302321
  - # 6
    frequency:   10.9825032251
  - # 7
    frequency:   11.3392217701
  - # 8
    frequency:   14.4709796456
  - # 9
    frequency:   15.1454495060

- q-position: [    0.3400000,    0.6600000,    0.5000000 ]
  distance:    0.0244569
  band:
  - # 1
    frequency:    3.2920405779
  - # 2
    frequency:    4.5030533316
  - # 3
    frequency:    5.2159219341
  - # 4
    frequency:    7.1103832593
  - # 5
    frequency:    8.0866950843
  - # 6
    frequency:   10.9832907669
  - # 7
    frequency:   11.3736189927
  - # 8
    frequency:   14.4126103938
  - # 9
    frequency:   15.1021610896

- q-position: [    0.3450000,    0.6550000,    0.5000000 ]
  distance:    0.0258156
  band:
  - # 1
    frequency:    3.2718034026
  - # 2
    frequency:    4.4487306752
  - # 3
    frequency:    5.2392074280
  - # 4
    frequency:    7.2126367399
  - # 5
    frequency:    8.1574882063
  - # 6
    frequency:   10.9841488801
  - # 7
    frequency:   11.4078959531
  - # 8
    frequency:   14.3511737196
  - # 9
    frequency:   15.0574951940

- q-position: [    0.3500000,    0.6500000,    0.5000000 ]
  distance:    0.0271743
  band:
  - # 1
    frequency:    3.2517658681
  - # 2
    frequency:    4.3926736446
  - # 3
    frequency:    5.2631694034
  - # 4
    frequency:    7.3177370895
  - # 5
    frequency:    8.2307619936
  - # 6
    frequency:   10.9850785252
  - # 7
    frequency:   11.4417418558
  - # 8
    frequency:   14.2867144551
  - # 9
    frequency:   15.0116457918

- q-position: [    0.3550000,    0.6450000,    0.5000000 ]
  distance:    0.0285330
  band:
  - # 1
    frequency:    3.2320345504
  - # 2
    frequency:    4.3350310120
  - # 3
    frequency:    5.2876334366
  - # 4
    frequency:    7.4255135310
  - # 5
    frequency:    8.3063692054
  - # 6
    frequency:   10.9860800102
  - # 7
    frequency:   11.4748365775
  - # 8
    frequency:   14.2192799890
  - # 9
    frequency:   14.9648199283

- q-position: [    0.3600000,    0.6400000,    0.5000000 ]
  distance:    0.0298917
  band:
  - # 1
    frequency:    3.2127042230
  - # 2
    frequency:    4.2759576637
  - # 3
    frequency:    5.3124318349
  - # 4
    frequency:    7.5358007849
  - # 5
    frequency:    8.3841629894
  - # 6
    frequency:   10.9871529454
  - # 7
    frequency:   11.5068514575
  - # 8
    frequency:   14.1489203269
  - # 9
    frequency:   14.9172377248

- q-position: [    0.3650000,    0.6350000,    0.5000000 ]
  distance:    0.0312504
  band:
  - # 1
    frequency:    3.1938579539
  - # 2
    frequency:    4.2156154530
  - # 3
    frequency:    5.3374052837
  - # 4
    frequency:    7.6484378639
  - # 5
    frequency:    8.4639969001
  - # 6
    frequency:   10.9882962124
  - # 7
    frequency:   11.5374502611
  - # 8
    frequency:   14.0756881721
  - # 9
    frequency:   14.8691321458

- q-position: [    0.3700000,    0.6300000,    0.5000000 ]
  distance:    0.0326091
  band:
  - # 1
    frequency:    3.1755674171
  - # 2
    frequency:    4.1541740353
  - # 3
    frequency:    5.3624039424
  - # 4
    frequency:    7.7632670840
  - # 5
    frequency:    8.5457249101
  - # 6
    frequency:   10.9895079482
  - # 7
    frequency:   11.5662904082
  - # 8
    frequency:   13.9996390299
  - # 9
    frequency:   14.8207484416

- q-position: [    0.3750000,    0.6250000,    0.5000000 ]
  distance:    0.0339679
  band:
  - # 1
    frequency:    3.1578933674
  - # 2
    frequency:    4.0918116711
  - # 3
    frequency:    5.3872880953
  - # 4
    frequency:    7.8801332394
  - # 5
    frequency:    8.6292014092
  - # 6
    frequency:   10.9907855481
  - # 7
    frequency:   11.5930245804
  - # 8
    frequency:   13.9208313429
  - # 9
    frequency:   14.7723431613

- q-position: [    0.3800000,    0.6200000,    0.5000000 ]
  distance:    0.0353266
  band:
  - # 1
    frequency:    3.1408862318
  - # 2
    frequency:    4.0287159858
  - # 3
    frequency:    5.4119284527
  - # 4
    frequency:    7.9988828922
  - # 5
    frequency:    8.7142811832
  - # 6
    frequency:   10.9921256883
  - # 7
    frequency:   11.6173028313
  - # 8
    frequency:   13.8393266652
  - # 9
    frequency:   14.7241826182

- q-position: [    0.3850000,    0.6150000,    0.5000000 ]
  distance:    0.0366853
  band:
  - # 1
    frequency:    3.1245867824
  - # 2
    frequency:    3.9650846733
  - # 3
    frequency:    5.4362061824
  - # 4
    frequency:    8.1193637283
  - # 5
    frequency:    8.8008193612
  - # 6
    frequency:   10.9935243727
  - # 7
    frequency:   11.6387753346
  - # 8
    frequency:   13.7551898890
  - # 9
    frequency:   14.6765406879

- q-position: [    0.3900000,    0.6100000,    0.5000000 ]
  distance:    0.0380440
  band:
  - # 1
    frequency:    3.1090268625
  - # 2
    frequency:    3.9011261288
  - # 3
    frequency:    5.4600127360
  - # 4
    frequency:    8.2414239310
  - # 5
    frequency:    8.8886713177
  - # 6
    frequency:   10.9949770071
  - # 7
    frequency:   11.6570958923
  - # 8
    frequency:   13.6684895378
  - # 9
    frequency:   14.6296958249

- q-position: [    0.3950000,    0.6050000,    0.5000000 ]
  distance:    0.0394027
  band:
  - # 1
    frequency:    3.0942301433
  - # 2
    frequency:    3.8370599926
  - # 3
    frequency:    5.4832495248
  - # 4
    frequency:    8.3649115224
  - # 5
    frequency:    8.9776925145
  - # 6
    frequency:   10.9964785053
  - # 7
    frequency:   11.6719263060
  - # 8
    frequency:   13.5792981479
  - # 9
    frequency:   14.5839272157

- q-position: [    0.4000000,    0.6000000,    0.5000000 ]
  distance:    0.0407614
  band:
  - # 1
    frequency:    3.0802128958
  - # 2
    frequency:    3.7731175838
  - # 3
    frequency:    5.5058274888
  - # 4
    frequency:    8.4896736161
  - # 5
    frequency:    9.0677382653
  - # 6
    frequency:   10.9980234354
  - # 7
    frequency:   11.6829416597
  - # 8
    frequency:   13.4876927687
  - # 9
    frequency:   14.5395100339

- q-position: [    0.4050000,    0.5950000,    0.5000000 ]
  distance:    0.0421201
  band:
  - # 1
    frequency:    3.0669847649
  - # 2
    frequency:    3.7095421962
  - # 3
    frequency:    5.5276665920
  - # 4
    frequency:    8.6155555146
  - # 5
    frequency:    9.1586633987
  - # 6
    frequency:   10.9996062142
  - # 7
    frequency:   11.6898364869
  - # 8
    frequency:   13.3937556213
  - # 9
    frequency:   14.4967098515

- q-position: [    0.4100000,    0.5900000,    0.5000000 ]
  distance:    0.0434789
  band:
  - # 1
    frequency:    3.0545495349
  - # 2
    frequency:    3.6465892218
  - # 3
    frequency:    5.5486952714
  - # 4
    frequency:    8.7423995671
  - # 5
    frequency:    9.2503217950
  - # 6
    frequency:   11.0012213653
  - # 7
    frequency:   11.6923316907
  - # 8
    frequency:   13.2975749742
  - # 9
    frequency:   14.4557763653

- q-position: [    0.4150000,    0.5850000,    0.5000000 ]
  distance:    0.0448376
  band:
  - # 1
    frequency:    3.0429058817
  - # 2
    frequency:    3.5845260637
  - # 3
    frequency:    5.5688498595
  - # 4
    frequency:    8.8700436711
  - # 5
    frequency:    9.3425657594
  - # 6
    frequency:   11.0028638607
  - # 7
    frequency:   11.6901819662
  - # 8
    frequency:   13.1992463203
  - # 9
    frequency:   14.4169367288

- q-position: [    0.4200000,    0.5800000,    0.5000000 ]
  distance:    0.0461963
  band:
  - # 1
    frequency:    3.0320481039
  - # 2
    frequency:    3.5236317893
  - # 3
    frequency:    5.5880739980
  - # 4
    frequency:    8.9983192587
  - # 5
    frequency:    9.4352451835
  - # 6
    frequency:   11.0045295805
  - # 7
    frequency:   11.6831833558
  - # 8
    frequency:   13.0988739741
  - # 9
    frequency:   14.3803889109

- q-position: [    0.4250000,    0.5750000,    0.5000000 ]
  distance:    0.0475550
  band:
  - # 1
    frequency:    3.0219668286
  - # 2
    frequency:    3.4641964716
  - # 3
    frequency:    5.6063180522
  - # 4
    frequency:    9.1270485278
  - # 5
    frequency:    9.5282064227
  - # 6
    frequency:   11.0062159388
  - # 7
    frequency:   11.6711804864
  - # 8
    frequency:   12.9965732725
  - # 9
    frequency:   14.3462956095

- q-position: [    0.4300000,    0.5700000,    0.5000000 ]
  distance:    0.0489137
  band:
  - # 1
    frequency:    3.0126496899
  - # 2
    frequency:    3.4065201610
  - # 3
    frequency:    5.6235385368
  - # 4
    frequency:    9.2560405610
  - # 5
    frequency:    9.6212907859
  - # 6
    frequency:   11.0079227580
  - # 7
    frequency:   11.6540730177
  - # 8
    frequency:   12.8924736514
  - # 9
    frequency:   14.3147793000

- q-position: [    0.4350000,    0.5650000,    0.5000000 ]
  distance:    0.0502724
  band:
  - # 1
    frequency:    3.0040819752
  - # 2
    frequency:    3.3509114256
  - # 3
    frequency:    5.6396975602
  - # 4
    frequency:    9.3850857754
  - # 5
    frequency:    9.7143324699
  - # 6
    frequency:   11.0096535200
  - # 7
    frequency:   11.6318209168
  - # 8
    frequency:   12.7867230208
  - # 9
    frequency:   14.2859189737

- q-position: [    0.4400000,    0.5600000,    0.5000000 ]
  distance:    0.0516312
  band:
  - # 1
    frequency:    2.9962472382
  - # 2
    frequency:    3.2976854017
  - # 3
    frequency:    5.6547622914
  - # 4
    frequency:    9.5139478157
  - # 5
    frequency:    9.8071556747
  - # 6
    frequency:   11.0114172067
  - # 7
    frequency:   11.6044483953
  - # 8
    frequency:   12.6794941120
  - # 9
    frequency:   14.2597490036

- q-position: [    0.4450000,    0.5550000,    0.5000000 ]
  distance:    0.0529899
  band:
  - # 1
    frequency:    2.9891278759
  - # 2
    frequency:    3.2471613023
  - # 3
    frequency:    5.6687044537
  - # 4
    frequency:    9.6423514421
  - # 5
    frequency:    9.8995704561
  - # 6
    frequency:   11.0132310865
  - # 7
    frequency:   11.5720467152
  - # 8
    frequency:   12.5709938860
  - # 9
    frequency:   14.2362603763

- q-position: [    0.4500000,    0.5500000,    0.5000000 ]
  distance:    0.0543486
  band:
  - # 1
    frequency:    2.9827056675
  - # 2
    frequency:    3.1996593443
  - # 3
    frequency:    5.6814998488
  - # 4
    frequency:    9.7699639840
  - # 5
    frequency:    9.9913665463
  - # 6
    frequency:   11.0151250492
  - # 7
    frequency:   11.5347766482
  - # 8
    frequency:   12.4614778278
  - # 9
    frequency:   14.2154042834

- q-position: [    0.4550000,    0.5450000,    0.5000000 ]
  distance:    0.0557073
  band:
  - # 1
    frequency:    2.9769622752
  - # 2
    frequency:    3.1554970782
  - # 3
    frequency:    5.6931279128
  - # 4
    frequency:    9.8963661794
  - # 5
    frequency:   10.0823037577
  - # 6
    frequency:   11.0171485237
  - # 7
    frequency:   11.4928722359
  - # 8
    frequency:   12.3512722711
  - # 9
    frequency:   14.1970978138

- q-position: [    0.4600000,    0.5400000,    0.5000000 ]
  distance:    0.0570660
  band:
  - # 1
    frequency:    2.9718797038
  - # 2
    frequency:    3.1149851339
  - # 3
    frequency:    5.7035713063
  - # 4
    frequency:   10.0210050500
  - # 5
    frequency:   10.1720963592
  - # 6
    frequency:   11.0193817371
  - # 7
    frequency:   11.4466489322
  - # 8
    frequency:   12.2408103419
  - # 9
    frequency:   14.1812312836

- q-position: [    0.4650000,    0.5350000,    0.5000000 ]
  distance:    0.0584247
  band:
  - # 1
    frequency:    2.9674407185
  - # 2
    frequency:    3.0784224376
  - # 3
    frequency:    5.7128155397
  - # 4
    frequency:   10.1431156652
  - # 5
    frequency:   10.2603862483
  - # 6
    frequency:   11.0219541770
  - # 7
    frequency:   11.3965218983
  - # 8
    frequency:   12.1306918082
  - # 9
    frequency:   14.1676766123

- q-position: [    0.4700000,    0.5300000,    0.5000000 ]
  distance:    0.0597834
  band:
  - # 1
    frequency:    2.9636292217
  - # 2
    frequency:    3.0460910018
  - # 3
    frequency:    5.7208486359
  - # 4
    frequency:   10.2615883284
  - # 5
    frequency:   10.3466940979
  - # 6
    frequency:   11.0250742061
  - # 7
    frequency:   11.3430459039
  - # 8
    frequency:   12.0217863478
  - # 9
    frequency:   14.1562961220

- q-position: [    0.4750000,    0.5250000,    0.5000000 ]
  distance:    0.0611422
  band:
  - # 1
    frequency:    2.9604305852
  - # 2
    frequency:    3.0182504402
  - # 3
    frequency:    5.7276608289
  - # 4
    frequency:   10.3747413128
  - # 5
    frequency:   10.4303244491
  - # 6
    frequency:   11.0290718265
  - # 7
    frequency:   11.2870014419
  - # 8
    frequency:   11.9154181126
  - # 9
    frequency:   14.1469511813

- q-position: [    0.4800000,    0.5200000,    0.5000000 ]
  distance:    0.0625009
  band:
  - # 1
    frequency:    2.9578319400
  - # 2
    frequency:    2.9951324126
  - # 3
    frequency:    5.7332443031
  - # 4
    frequency:   10.4799435244
  - # 5
    frequency:   10.5101682728
  - # 6
    frequency:   11.0344371099
  - # 7
    frequency:   11.2295840119
  - # 8
    frequency:   11.8137046929
  - # 9
    frequency:   14.1395102235

- q-position: [    0.4850000,    0.5150000,    0.5000000 ]
  distance:    0.0638596
  band:
  - # 1
    frequency:    2.9558224215
  - # 2
    frequency:    2.9769352452
  - # 3
    frequency:    5.7375929696
  - # 4
    frequency:   10.5730672284
  - # 5
    frequency:   10.5842654012
  - # 6
    frequency:   11.0417459530
  - # 7
    frequency:   11.1728345135
  - # 8
    frequency:   11.7201786848
  - # 9
    frequency:   14.1338557996

- q-position: [    0.4900000,    0.5100000,    0.5000000 ]
  distance:    0.0652183
  band:
  - # 1
    frequency:    2.9543933705
  - # 2
    frequency:    2.9638189992
  - # 3
    frequency:    5.7407022834
  - # 4
    frequency:   10.6480215008
  - # 5
    frequency:   10.6488127836
  - # 6
    frequency:   11.0510905877
  - # 7
    frequency:   11.1206250110
  - # 8
    frequency:   11.6408237702
  - # 9
    frequency:   14.1298904519

- q-position: [    0.4950000,    0.5050000,    0.5000000 ]
  distance:    0.0665770
  band:
  - # 1
    frequency:    2.9535384901
  - # 2
    frequency:    2.9559012675
  - # 3
    frequency:    5.7425691006
  - # 4
    frequency:   10.6962541166
  - # 5
    frequency:   10.6973108758
  - # 6
    frequency:   11.0604580627
  - # 7
    frequency:   11.0805644294
  - # 8
    frequency:   11.5851376206
  - # 9
    frequency:   14.1275413041

- q-position: [    0.5000000,    0.5000000,    0.5000000 ]
  distance:    0.0679357
  band:
  - # 1
    frequency:    2.9532539573
  - # 2
    frequency:    2.9532539573
  - # 3
    frequency:    5.7431915757
  - # 4
    frequency:   10.7145529081
  - # 5
    frequency:   10.7145529081
  - # 6
    frequency:   11.0647221595
  - # 7
    frequency:   11.0647221595
  - # 8
    frequency:   11.5646224429
  - # 9
    frequency:   14.1267633299

- q-position: [    0.5000000,    0.5000000,    0.5000000 ]
  distance:    0.0679357
  band:
  - # 1
    frequency:    2.9532539573
  - # 2
    frequency:    2.9532539573
  - # 3
    frequency:    5.7431915757
  - # 4
    frequency:   10.7145529081
  - # 5
    frequency:   10.7145529081
  - # 6
    frequency:   11.0647221595
  - # 7
    frequency:   11.0647221595
  - # 8
    frequency:   11.5646224429
  - # 9
    frequency:   14.1267633299

- q-position: [    0.4900000,    0.4900000,    0.4900000 ]
  distance:    0.0695998
  band:
  - # 1
    frequency:    2.9522384596
  - # 2
    frequency:    2.9522384596
  - # 3
    frequency:    5.7407501859
  - # 4
    frequency:   10.7079234481
  - # 5
    frequency:   10.7079234481
  - # 6
    frequency:   11.0713641037
  - # 7
    frequency:   11.0713641037
  - # 8
    frequency:   11.5629980692
  - # 9
    frequency:   14.1248478406

- q-position: [    0.4800000,    0.4800000,    0.4800000 ]
  distance:    0.0712639
  band:
  - # 1
    frequency:    2.9491893006
  - # 2
    frequency:    2.9491893006
  - # 3
    frequency:    5.7334267434
  - # 4
    frequency:   10.6893091828
  - # 5
    frequency:   10.6893091828
  - # 6
    frequency:   11.0900146859
  - # 7
    frequency:   11.0900146859
  - # 8
    frequency:   11.5581175351
  - # 9
    frequency:   14.1191186644

- q-position: [    0.4700000,    0.4700000,    0.4700000 ]
  distance:    0.0729280
  band:
  - # 1
    frequency:    2.9440985127
  - # 2
    frequency:    2.9440985127
  - # 3
    frequency:    5.7212234161
  - # 4
    frequency:   10.6615261769
  - # 5
    frequency:   10.6615261769
  - # 6
    frequency:   11.1178544710
  - # 7
    frequency:   11.1178544710
  - # 8
    frequency:   11.5499587547
  - # 9
    frequency:   14.1096275388

- q-position: [    0.4600000,    0.4600000,    0.4600000 ]
  distance:    0.0745920
  band:
  - # 1
    frequency:    2.9369529146
  - # 2
    frequency:    2.9369529146
  - # 3
    frequency:    5.7041437706
  - # 4
    frequency:   10.6273288570
  - # 5
    frequency:   10.6273288570
  - # 6
    frequency:   11.1521235347
  - # 7
    frequency:   11.1521235347
  - # 8
    frequency:   11.5384854363
  - # 9
    frequency:   14.0964602265

- q-position: [    0.4500000,    0.4500000,    0.4500000 ]
  distance:    0.0762561
  band:
  - # 1
    frequency:    2.9277342589
  - # 2
    frequency:    2.9277342589
  - # 3
    frequency:    5.6821927046
  - # 4
    frequency:   10.5887247301
  - # 5
    frequency:   10.5887247301
  - # 6
    frequency:   11.1908069205
  - # 7
    frequency:   11.1908069205
  - # 8
    frequency:   11.5236478847
  - # 9
    frequency:   14.0797357884

- q-position: [    0.4400000,    0.4400000,    0.4400000 ]
  distance:    0.0779202
  band:
  - # 1
    frequency:    2.9164194350
  - # 2
    frequency:    2.9164194350
  - # 3
    frequency:    5.6553763525
  - # 4
    frequency:   10.5470128610
  - # 5
    frequency:   10.5470128610
  - # 6
    frequency:   11.2325964017
  - # 7
    frequency:   11.2325964017
  - # 8
    frequency:   11.5053841740
  - # 9
    frequency:   14.0596055144

- q-position: [    0.4300000,    0.4300000,    0.4300000 ]
  distance:    0.0795843
  band:
  - # 1
    frequency:    2.9029807286
  - # 2
    frequency:    2.9029807286
  - # 3
    frequency:    5.6237019673
  - # 4
    frequency:   10.5030049124
  - # 5
    frequency:   10.5030049124
  - # 6
    frequency:   11.2766697354
  - # 7
    frequency:   11.2766697354
  - # 8
    frequency:   11.4836217355
  - # 9
    frequency:   14.0362514632

- q-position: [    0.4200000,    0.4200000,    0.4200000 ]
  distance:    0.0812484
  band:
  - # 1
    frequency:    2.8873861336
  - # 2
    frequency:    2.8873861336
  - # 3
    frequency:    5.5871777802
  - # 4
    frequency:   10.4572109709
  - # 5
    frequency:   10.4572109709
  - # 6
    frequency:   11.3225051783
  - # 7
    frequency:   11.3225051783
  - # 8
    frequency:   11.4582794092
  - # 9
    frequency:   14.0098845595

- q-position: [    0.4100000,    0.4100000,    0.4100000 ]
  distance:    0.0829124
  band:
  - # 1
    frequency:    2.8695997151
  - # 2
    frequency:    2.8695997151
  - # 3
    frequency:    5.5458128412
  - # 4
    frequency:   10.4099608832
  - # 5
    frequency:   10.4099608832
  - # 6
    frequency:   11.3697605286
  - # 7
    frequency:   11.3697605286
  - # 8
    frequency:   11.4292700095
  - # 9
    frequency:   13.9807421932

- q-position: [    0.4000000,    0.4000000,    0.4000000 ]
  distance:    0.0845765
  band:
  - # 1
    frequency:    2.8495820213
  - # 2
    frequency:    2.8495820213
  - # 3
    frequency:    5.4996168443
  - # 4
    frequency:   10.3614780623
  - # 5
    frequency:   10.3614780623
  - # 6
    frequency:   11.3965034431
  - # 7
    frequency:   11.4181997227
  - # 8
    frequency:   11.4181997227
  - # 9
    frequency:   13.9490852762

- q-position: [    0.3900000,    0.3900000,    0.3900000 ]
  distance:    0.0862406
  band:
  - # 1
    frequency:    2.8272905420
  - # 2
    frequency:    2.8272905420
  - # 3
    frequency:    5.4485999410
  - # 4
    frequency:   10.3119238572
  - # 5
    frequency:   10.3119238572
  - # 6
    frequency:   11.3598904006
  - # 7
    frequency:   11.4676488823
  - # 8
    frequency:   11.4676488823
  - # 9
    frequency:   13.9151947278

- q-position: [    0.3800000,    0.3800000,    0.3800000 ]
  distance:    0.0879047
  band:
  - # 1
    frequency:    2.8026802112
  - # 2
    frequency:    2.8026802112
  - # 3
    frequency:    5.3927725490
  - # 4
    frequency:   10.2614244820
  - # 5
    frequency:   10.2614244820
  - # 6
    frequency:   11.3193466138
  - # 7
    frequency:   11.5179698007
  - # 8
    frequency:   11.5179698007
  - # 9
    frequency:   13.8793673899

- q-position: [    0.3700000,    0.3700000,    0.3700000 ]
  distance:    0.0895687
  band:
  - # 1
    frequency:    2.7757039516
  - # 2
    frequency:    2.7757039516
  - # 3
    frequency:    5.3321451617
  - # 4
    frequency:   10.2100876103
  - # 5
    frequency:   10.2100876103
  - # 6
    frequency:   11.2747976303
  - # 7
    frequency:   11.5690437519
  - # 8
    frequency:   11.5690437519
  - # 9
    frequency:   13.8419114083

- q-position: [    0.3600000,    0.3600000,    0.3600000 ]
  distance:    0.0912328
  band:
  - # 1
    frequency:    2.7463132595
  - # 2
    frequency:    2.7463132595
  - # 3
    frequency:    5.2667281671
  - # 4