24   
2    

1    
  0.0070710678118655   0.0070710678118655   0.0000000000000000
  -0.0008391854   -0.0008391854   -0.0000000000
   0.0002734394    0.0002734394   -0.0000000000
  -0.0001428755    0.0001275109    0.0001459271
   0.0001275109   -0.0001428755   -0.0001459271
   0.0001275109   -0.0001428755    0.0001459271
  -0.0001428755    0.0001275109   -0.0001459271
  -0.0000184161   -0.0000184161   -0.0000000000
   0.0000131676    0.0000131676   -0.0000000000
   0.0001141820    0.0001141820    0.0000568083
   0.0001065380    0.0001065380   -0.0000492360
   0.0000572677    0.0000574309    0.0000000316
  -0.0000187710   -0.0000186131    0.0000000935
   0.0000574309    0.0000572677    0.0000000316
  -0.0000186131   -0.0000187710    0.0000000935
   0.0000014919    0.0000014919   -0.0000200339
   0.0000013353    0.0000013353    0.0000201774
   0.0000014919    0.0000014919    0.0000200339
   0.0000013353    0.0000013353   -0.0000201774
  -0.0000187710   -0.0000186131   -0.0000000935
   0.0000572677    0.0000574309   -0.0000000316
  -0.0000186131   -0.0000187710   -0.0000000935
   0.0000574309    0.0000572677   -0.0000000316
   0.0001141820    0.0001141820   -0.0000568083
   0.0001065380    0.0001065380    0.0000492360

9    
  0.0070710678118655   0.0070710678118655   0.0000000000000000
   0.0001066365    0.0001066365    0.0000490922
   0.0001140736    0.0001140736   -0.0000569448
   0.0000574453    0.0000572502   -0.0000001796
  -0.0000186800   -0.0000187007   -0.0000000419
   0.0000572502    0.0000574453   -0.0000001796
  -0.0000187007   -0.0000186800   -0.0000000419
   0.0000014007    0.0000014007   -0.0000200786
   0.0000014267    0.0000014267    0.0000201294
  -0.0006181611   -0.0006181611    0.0000089720
   0.0000638105    0.0000638105    0.0000001050
  -0.0000214173    0.0000242423    0.0000393469
   0.0000244998   -0.0000215021   -0.0000395317
   0.0000242423   -0.0000214173    0.0000393469
  -0.0000215021    0.0000244998   -0.0000395317
  -0.0000150683   -0.0000150683    0.0000000671
   0.0000145285    0.0000145285   -0.0000000334
  -0.0000093886   -0.0000093886    0.0000000469
  -0.0000199880   -0.0000199880   -0.0000004027
   0.0001811835   -0.0000421310    0.0000218338
  -0.0000414542    0.0001799789   -0.0000217717
  -0.0000421310    0.0001811835    0.0000218338
   0.0001799789   -0.0000414542   -0.0000217717
  -0.0000635947   -0.0000635947    0.0000000644
   0.0000636095    0.0000636095   -0.0000003290
