phonopy:
  version: 2.17.1
  calculator: dftbp
  frequency_unit_conversion_factor: 154.107943
  symmetry_tolerance: 1.00000e-05
  configuration:
    atom_name: "Ce O"
    dim: "2 2 2"
    band: "0.25 0.75 0.5    0.5 0.5 0.5    0. 0. 0.   0. 0.5 0.5  0.25 0.75 0.5    0.375 0.75 0.375"
    calculator: "dftbp"

physical_unit:
  atomic_mass: "AMU"
  length: "au"
  force_constants: "hartree/au^2"

space_group:
  type: "Fm-3m"
  number: 225
  Hall_symbol: "-F 4 2 3"

supercell_matrix:
- [   2,   0,   0 ]
- [   0,   2,   0 ]
- [   0,   0,   2 ]

primitive_cell:
  lattice:
  - [     5.204233797284802,     5.204233797284802,     0.000000000000000 ] # a
  - [     0.000000000000000,     5.204233797284802,     5.204233797284802 ] # b
  - [     5.204233797284802,     0.000000000000000,     5.204233797284802 ] # c
  points:
  - symbol: Ce # 1
    coordinates: [  0.000000000000000,  0.000000000000000,  0.000000000000000 ]
    mass: 140.116000
  - symbol: O  # 2
    coordinates: [  0.250000000000000,  0.250000000000000,  0.250000000000000 ]
    mass: 15.999400
  - symbol: O  # 3
    coordinates: [  0.750000000000000,  0.750000000000000,  0.750000000000000 ]
    mass: 15.999400
  reciprocal_lattice: # without 2pi
  - [     0.096075622171484,     0.096075622171484,    -0.096075622171484 ] # a*
  - [    -0.096075622171484,     0.096075622171484,     0.096075622171484 ] # b*
  - [     0.096075622171484,    -0.096075622171484,     0.096075622171484 ] # c*

unit_cell:
  lattice:
  - [     5.204233797284802,     5.204233797284802,     0.000000000000000 ] # a
  - [     0.000000000000000,     5.204233797284802,     5.204233797284802 ] # b
  - [     5.204233797284802,     0.000000000000000,     5.204233797284802 ] # c
  points:
  - symbol: Ce # 1
    coordinates: [  0.000000000000000,  0.000000000000000,  0.000000000000000 ]
    mass: 140.116000
    reduced_to: 1
  - symbol: O  # 2
    coordinates: [  0.250000000000000,  0.250000000000000,  0.250000000000000 ]
    mass: 15.999400
    reduced_to: 2
  - symbol: O  # 3
    coordinates: [  0.750000000000000,  0.750000000000000,  0.750000000000000 ]
    mass: 15.999400
    reduced_to: 3

supercell:
  lattice:
  - [    10.408467594569604,    10.408467594569604,     0.000000000000000 ] # a
  - [     0.000000000000000,    10.408467594569604,    10.408467594569604 ] # b
  - [    10.408467594569604,     0.000000000000000,    10.408467594569604 ] # c
  points:
  - symbol: Ce # 1
    coordinates: [  0.000000000000000,  0.000000000000000,  0.000000000000000 ]
    mass: 140.116000
    reduced_to: 1
  - symbol: Ce # 2
    coordinates: [  0.500000000000000,  0.000000000000000,  0.000000000000000 ]
    mass: 140.116000
    reduced_to: 1
  - symbol: Ce # 3
    coordinates: [  0.000000000000000,  0.500000000000000,  0.000000000000000 ]
    mass: 140.116000
    reduced_to: 1
  - symbol: Ce # 4
    coordinates: [  0.500000000000000,  0.500000000000000,  0.000000000000000 ]
    mass: 140.116000
    reduced_to: 1
  - symbol: Ce # 5
    coordinates: [  0.000000000000000,  0.000000000000000,  0.500000000000000 ]
    mass: 140.116000
    reduced_to: 1
  - symbol: Ce # 6
    coordinates: [  0.500000000000000,  0.000000000000000,  0.500000000000000 ]
    mass: 140.116000
    reduced_to: 1
  - symbol: Ce # 7
    coordinates: [  0.000000000000000,  0.500000000000000,  0.500000000000000 ]
    mass: 140.116000
    reduced_to: 1
  - symbol: Ce # 8
    coordinates: [  0.500000000000000,  0.500000000000000,  0.500000000000000 ]
    mass: 140.116000
    reduced_to: 1
  - symbol: O  # 9
    coordinates: [  0.125000000000000,  0.125000000000000,  0.125000000000000 ]
    mass: 15.999400
    reduced_to: 9
  - symbol: O  # 10
    coordinates: [  0.625000000000000,  0.125000000000000,  0.125000000000000 ]
    mass: 15.999400
    reduced_to: 9
  - symbol: O  # 11
    coordinates: [  0.125000000000000,  0.625000000000000,  0.125000000000000 ]
    mass: 15.999400
    reduced_to: 9
  - symbol: O  # 12
    coordinates: [  0.625000000000000,  0.625000000000000,  0.125000000000000 ]
    mass: 15.999400
    reduced_to: 9
  - symbol: O  # 13
    coordinates: [  0.125000000000000,  0.125000000000000,  0.625000000000000 ]
    mass: 15.999400
    reduced_to: 9
  - symbol: O  # 14
    coordinates: [  0.625000000000000,  0.125000000000000,  0.625000000000000 ]
    mass: 15.999400
    reduced_to: 9
  - symbol: O  # 15
    coordinates: [  0.125000000000000,  0.625000000000000,  0.625000000000000 ]
    mass: 15.999400
    reduced_to: 9
  - symbol: O  # 16
    coordinates: [  0.625000000000000,  0.625000000000000,  0.625000000000000 ]
    mass: 15.999400
    reduced_to: 9
  - symbol: O  # 17
    coordinates: [  0.375000000000000,  0.375000000000000,  0.375000000000000 ]
    mass: 15.999400
    reduced_to: 17
  - symbol: O  # 18
    coordinates: [  0.875000000000000,  0.375000000000000,  0.375000000000000 ]
    mass: 15.999400
    reduced_to: 17
  - symbol: O  # 19
    coordinates: [  0.375000000000000,  0.875000000000000,  0.375000000000000 ]
    mass: 15.999400
    reduced_to: 17
  - symbol: O  # 20
    coordinates: [  0.875000000000000,  0.875000000000000,  0.375000000000000 ]
    mass: 15.999400
    reduced_to: 17
  - symbol: O  # 21
    coordinates: [  0.375000000000000,  0.375000000000000,  0.875000000000000 ]
    mass: 15.999400
    reduced_to: 17
  - symbol: O  # 22
    coordinates: [  0.875000000000000,  0.375000000000000,  0.875000000000000 ]
    mass: 15.999400
    reduced_to: 17
  - symbol: O  # 23
    coordinates: [  0.375000000000000,  0.875000000000000,  0.875000000000000 ]
    mass: 15.999400
    reduced_to: 17
  - symbol: O  # 24
    coordinates: [  0.875000000000000,  0.875000000000000,  0.875000000000000 ]
    mass: 15.999400
    reduced_to: 17
