|===============================================================================
|
|  DFTB+ release 21.2
|
|  Copyright (C) 2006 - 2021  DFTB+ developers group
|
|===============================================================================
|
|  When publishing results obtained with DFTB+, please cite the following
|  reference:
|
|  * DFTB+, a software package for efficient approximate density functional
|    theory based atomistic simulations, J. Chem. Phys. 152, 124101 (2020).
|    [doi: 10.1063/1.5143190]
|
|  You should also cite additional publications crediting the parametrization
|  data you use. Please consult the documentation of the SK-files for the
|  references.
|
|===============================================================================

Reading input file 'dftb_in.hsd'
Parser version: 10

--------------------------------------------------------------------------------
***  Converting input from parser version  8 to parser version 10 ...
WARNING!
-> Set 'LineSearch = Yes'
Path: dftbplusinput/Driver/LBFGS/LineSearch

WARNING!
-> Set 'oldLineSearch = Yes'
Path: dftbplusinput/Driver/LBFGS/oldLineSearch

***  Done.

Reading SK-files:
../../../SKF-FILES/REFITTED/Ce-Ce.skf
../../../SKF-FILES/REFITTED/Ce-O.skf
../../../SKF-FILES/REFITTED/O-O.skf
Done.
WARNING!
-> This driver is deprecated and will be removed in future versions.
Please use the GeometryOptimization driver instead.
Path: dftbplusinput/Driver/LBFGS
Line: 33-44 (File: dftb_in.hsd)



Processed input in HSD format written to 'dftb_pin.hsd'

Starting initialization...
--------------------------------------------------------------------------------
OpenMP threads:              8
Chosen random seed:          1195679392
Mode:                        LBFGS relaxation
Self consistent charges:     Yes
SCC-tolerance:                 0.100000E-05
Max. scc iterations:                  10000
Shell resolved Hubbard:      Yes
Orbitally dependant functional:   Yes
Orbital functional:          FLL
Spin polarisation:           No
Nr. of up electrons:            64.000000
Nr. of down electrons:          64.000000
Periodic boundaries:         Yes
Lattice optimisation:        Yes
Pressure:                        0.000000
Electronic solver:           Relatively robust
Mixer:                       Broyden mixer
Mixing parameter:                  0.200000
Maximal SCC-cycles:                   10000
Nr. of chrg. vec. in memory:          10000
Nr. of moved atoms:                      24
Max. nr. of geometry steps:               0
Force tolerance:               0.100000E-03
Electronic temperature:        0.633363E-03 H      0.172347E-01 eV
Initial charges:             Set automatically (system chrg:   0.000E+00)
Included shells:            Ce:  s, p, d, f
                             O:  s, p
K-points and weights:           1:  0.000000  0.000000  0.000000     0.015625
                                2:  0.000000  0.000000  0.250000     0.031250
                                3:  0.000000  0.000000  0.500000     0.015625
                                4:  0.000000  0.250000  0.000000     0.031250
                                5:  0.000000  0.250000  0.250000     0.031250
                                6:  0.000000  0.250000  0.500000     0.031250
                                7:  0.000000  0.250000  0.750000     0.031250
                                8:  0.000000  0.500000  0.000000     0.015625
                                9:  0.000000  0.500000  0.250000     0.031250
                               10:  0.000000  0.500000  0.500000     0.015625
                               11:  0.250000  0.000000  0.000000     0.031250
                               12:  0.250000  0.000000  0.250000     0.031250
                               13:  0.250000  0.000000  0.500000     0.031250
                               14:  0.250000  0.000000  0.750000     0.031250
                               15:  0.250000  0.250000  0.000000     0.031250
                               16:  0.250000  0.250000  0.250000     0.031250
                               17:  0.250000  0.250000  0.500000     0.031250
                               18:  0.250000  0.250000  0.750000     0.031250
                               19:  0.250000  0.500000  0.000000     0.031250
                               20:  0.250000  0.500000  0.250000     0.031250
                               21:  0.250000  0.500000  0.500000     0.031250
                               22:  0.250000  0.500000  0.750000     0.031250
                               23:  0.250000  0.750000  0.000000     0.031250
                               24:  0.250000  0.750000  0.250000     0.031250
                               25:  0.250000  0.750000  0.500000     0.031250
                               26:  0.250000  0.750000  0.750000     0.031250
                               27:  0.500000  0.000000  0.000000     0.015625
                               28:  0.500000  0.000000  0.250000     0.031250
                               29:  0.500000  0.000000  0.500000     0.015625
                               30:  0.500000  0.250000  0.000000     0.031250
                               31:  0.500000  0.250000  0.250000     0.031250
                               32:  0.500000  0.250000  0.500000     0.031250
                               33:  0.500000  0.250000  0.750000     0.031250
                               34:  0.500000  0.500000  0.000000     0.015625
                               35:  0.500000  0.500000  0.250000     0.031250
                               36:  0.500000  0.500000  0.500000     0.015625

K-points in absolute space:     1:  0.000000  0.000000  0.000000
                                2:  0.012009 -0.012009  0.012009
                                3:  0.024019 -0.024019  0.024019
                                4: -0.012009  0.012009  0.012009
                                5:  0.000000  0.000000  0.024019
                                6:  0.012009 -0.012009  0.036028
                                7:  0.024019 -0.024019  0.048038
                                8: -0.024019  0.024019  0.024019
                                9: -0.012009  0.012009  0.036028
                               10:  0.000000  0.000000  0.048038
                               11:  0.012009  0.012009 -0.012009
                               12:  0.024019  0.000000  0.000000
                               13:  0.036028 -0.012009  0.012009
                               14:  0.048038 -0.024019  0.024019
                               15:  0.000000  0.024019  0.000000
                               16:  0.012009  0.012009  0.012009
                               17:  0.024019  0.000000  0.024019
                               18:  0.036028 -0.012009  0.036028
                               19: -0.012009  0.036028  0.012009
                               20:  0.000000  0.024019  0.024019
                               21:  0.012009  0.012009  0.036028
                               22:  0.024019  0.000000  0.048038
                               23: -0.024019  0.048038  0.024019
                               24: -0.012009  0.036028  0.036028
                               25:  0.000000  0.024019  0.048038
                               26:  0.012009  0.012009  0.060047
                               27:  0.024019  0.024019 -0.024019
                               28:  0.036028  0.012009 -0.012009
                               29:  0.048038  0.000000  0.000000
                               30:  0.012009  0.036028 -0.012009
                               31:  0.024019  0.024019  0.000000
                               32:  0.036028  0.012009  0.012009
                               33:  0.048038  0.000000  0.024019
                               34:  0.000000  0.048038  0.000000
                               35:  0.012009  0.036028  0.012009
                               36:  0.024019  0.024019  0.024019

Extra options:
                             Mulliken analysis
Force type                   original
U-J coupling constants: Ce
Shells: 3               UJ:0.0919
Shells: 4               UJ:0.0731

--------------------------------------------------------------------------------

***  Geometry step: 0, Lattice step: 0

 iSCC Total electronic   Diff electronic      SCC error    
    1    0.00000000E+00    0.00000000E+00    0.16742186E+01
    2   -0.61677954E+02   -0.61677954E+02    0.26006375E+01
    3   -0.46304588E+02    0.15373366E+02    0.24412212E+00
    4   -0.62284382E+02   -0.15979794E+02    0.12783304E+00
    5   -0.62361798E+02   -0.77416067E-01    0.11821716E+00
    6   -0.62367492E+02   -0.56945737E-02    0.20152609E+00
    7   -0.62358285E+02    0.92072098E-02    0.17862997E-01
    8   -0.62423097E+02   -0.64811471E-01    0.61078126E-01
    9   -0.62416111E+02    0.69861941E-02    0.20596273E-01
   10   -0.62422174E+02   -0.60635508E-02    0.16113318E-01
   11   -0.62422557E+02   -0.38296579E-03    0.42331115E-02
   12   -0.62423103E+02   -0.54637210E-03    0.34596233E-02
   13   -0.62423102E+02    0.11567480E-05    0.10806642E-02
   14   -0.62423103E+02   -0.47717776E-06    0.23317391E-03
   15   -0.62423104E+02   -0.12074351E-05    0.76257174E-04
   16   -0.62423104E+02   -0.85420680E-07    0.84179278E-04
   17   -0.62423104E+02    0.57762861E-09    0.20621651E-05
   18   -0.62423104E+02   -0.13801248E-07    0.10678881E-05
   19   -0.62423104E+02   -0.50590643E-11    0.29441148E-06

Total Energy:                      -60.1690644728 H        -1637.2835 eV
Extrapolated to 0K:                -60.1690644728 H        -1637.2835 eV
Total Mermin free energy:          -60.1690644728 H        -1637.2835 eV
Force related energy:              -60.1690644728 H        -1637.2835 eV

Volume:                              0.225523E+04 au^3   0.334190E+03 A^3
Pressure:                           -0.642790E-04 au    -0.189115E+10 Pa
Maximal force component:             0.839185E-03
Averaged force norm:                 0.283614E-03
Maximal Lattice force component:     0.984928E-02 au
Averaged lattice force norm:         0.984822E-02 au
>> Charges saved for restart in charges.bin

Geometry converged

--------------------------------------------------------------------------------
DFTB+ running times                          cpu [s]             wall clock [s]
--------------------------------------------------------------------------------
Pre-SCC initialisation                 +       0.42 (  0.6%)       0.28 (  1.9%)
SCC                                    +      66.22 ( 96.1%)      13.65 ( 95.0%)
Post-SCC processing                    +       2.21 (  3.2%)       0.42 (  2.9%)
Post-geometry optimisation             +       0.07 (  0.1%)       0.01 (  0.1%)
--------------------------------------------------------------------------------
Missing                                +       0.00 (  0.0%)       0.00 (  0.0%)
Total                                  =      68.91 (100.0%)      14.36 (100.0%)
--------------------------------------------------------------------------------
