|===============================================================================
|
|  DFTB+ release 21.2
|
|  Copyright (C) 2006 - 2021  DFTB+ developers group
|
|===============================================================================
|
|  When publishing results obtained with DFTB+, please cite the following
|  reference:
|
|  * DFTB+, a software package for efficient approximate density functional
|    theory based atomistic simulations, J. Chem. Phys. 152, 124101 (2020).
|    [doi: 10.1063/1.5143190]
|
|  You should also cite additional publications crediting the parametrization
|  data you use. Please consult the documentation of the SK-files for the
|  references.
|
|===============================================================================

Reading input file 'dftb_in.hsd'
Parser version: 10

--------------------------------------------------------------------------------
Reading SK-files:
../../SKF-FILES/REFITTED/Ce-Ce.skf
../../SKF-FILES/REFITTED/Ce-O.skf
../../SKF-FILES/REFITTED/O-O.skf
Done.
WARNING!
-> This driver is deprecated and will be removed in future versions.
Please use the GeometryOptimization driver instead.
Path: dftbplusinput/Driver/LBFGS
Line: 33-52 (File: dftb_in.hsd)



Processed input in HSD format written to 'dftb_pin.hsd'

Starting initialization...
--------------------------------------------------------------------------------
OpenMP threads:              8
Chosen random seed:          1171063352
Mode:                        LBFGS relaxation
Self consistent charges:     Yes
SCC-tolerance:                 0.100000E-05
Max. scc iterations:                  10000
Shell resolved Hubbard:      Yes
Orbitally dependant functional:   Yes
Orbital functional:          FLL
Spin polarisation:           No
Nr. of up electrons:            64.000000
Nr. of down electrons:          64.000000
Periodic boundaries:         Yes
Lattice optimisation:        Yes
Pressure:                        0.000000
Electronic solver:           Relatively robust
Mixer:                       Broyden mixer
Mixing parameter:                  0.200000
Maximal SCC-cycles:                   10000
Nr. of chrg. vec. in memory:          10000
Nr. of moved atoms:                      24
Max. nr. of geometry steps:            1000
Force tolerance:               0.100000E-03
Electronic temperature:        0.633363E-03 H      0.172347E-01 eV
Initial charges:             Set automatically (system chrg:   0.000E+00)
Included shells:            Ce:  s, p, d
                             O:  s, p
K-points and weights:           1:  0.000000  0.000000  0.000000     0.015625
                                2:  0.000000  0.000000  0.250000     0.031250
                                3:  0.000000  0.000000  0.500000     0.015625
                                4:  0.000000  0.250000  0.000000     0.031250
                                5:  0.000000  0.250000  0.250000     0.031250
                                6:  0.000000  0.250000  0.500000     0.031250
                                7:  0.000000  0.250000  0.750000     0.031250
                                8:  0.000000  0.500000  0.000000     0.015625
                                9:  0.000000  0.500000  0.250000     0.031250
                               10:  0.000000  0.500000  0.500000     0.015625
                               11:  0.250000  0.000000  0.000000     0.031250
                               12:  0.250000  0.000000  0.250000     0.031250
                               13:  0.250000  0.000000  0.500000     0.031250
                               14:  0.250000  0.000000  0.750000     0.031250
                               15:  0.250000  0.250000  0.000000     0.031250
                               16:  0.250000  0.250000  0.250000     0.031250
                               17:  0.250000  0.250000  0.500000     0.031250
                               18:  0.250000  0.250000  0.750000     0.031250
                               19:  0.250000  0.500000  0.000000     0.031250
                               20:  0.250000  0.500000  0.250000     0.031250
                               21:  0.250000  0.500000  0.500000     0.031250
                               22:  0.250000  0.500000  0.750000     0.031250
                               23:  0.250000  0.750000  0.000000     0.031250
                               24:  0.250000  0.750000  0.250000     0.031250
                               25:  0.250000  0.750000  0.500000     0.031250
                               26:  0.250000  0.750000  0.750000     0.031250
                               27:  0.500000  0.000000  0.000000     0.015625
                               28:  0.500000  0.000000  0.250000     0.031250
                               29:  0.500000  0.000000  0.500000     0.015625
                               30:  0.500000  0.250000  0.000000     0.031250
                               31:  0.500000  0.250000  0.250000     0.031250
                               32:  0.500000  0.250000  0.500000     0.031250
                               33:  0.500000  0.250000  0.750000     0.031250
                               34:  0.500000  0.500000  0.000000     0.015625
                               35:  0.500000  0.500000  0.250000     0.031250
                               36:  0.500000  0.500000  0.500000     0.015625

K-points in absolute space:     1:  0.000000  0.000000  0.000000
                                2:  0.012009 -0.012009  0.012009
                                3:  0.024019 -0.024019  0.024019
                                4: -0.012009  0.012009  0.012009
                                5:  0.000000  0.000000  0.024019
                                6:  0.012009 -0.012009  0.036028
                                7:  0.024019 -0.024019  0.048038
                                8: -0.024019  0.024019  0.024019
                                9: -0.012009  0.012009  0.036028
                               10:  0.000000  0.000000  0.048038
                               11:  0.012009  0.012009 -0.012009
                               12:  0.024019  0.000000  0.000000
                               13:  0.036028 -0.012009  0.012009
                               14:  0.048038 -0.024019  0.024019
                               15:  0.000000  0.024019  0.000000
                               16:  0.012009  0.012009  0.012009
                               17:  0.024019  0.000000  0.024019
                               18:  0.036028 -0.012009  0.036028
                               19: -0.012009  0.036028  0.012009
                               20:  0.000000  0.024019  0.024019
                               21:  0.012009  0.012009  0.036028
                               22:  0.024019  0.000000  0.048038
                               23: -0.024019  0.048038  0.024019
                               24: -0.012009  0.036028  0.036028
                               25:  0.000000  0.024019  0.048038
                               26:  0.012009  0.012009  0.060047
                               27:  0.024019  0.024019 -0.024019
                               28:  0.036028  0.012009 -0.012009
                               29:  0.048038  0.000000  0.000000
                               30:  0.012009  0.036028 -0.012009
                               31:  0.024019  0.024019  0.000000
                               32:  0.036028  0.012009  0.012009
                               33:  0.048038  0.000000  0.024019
                               34:  0.000000  0.048038  0.000000
                               35:  0.012009  0.036028  0.012009
                               36:  0.024019  0.024019  0.024019

Extra options:
                             Mulliken analysis
Force type                   original
U-J coupling constants: Ce
Shells: 3               UJ:0.0919

--------------------------------------------------------------------------------

***  Geometry step: 0, Lattice step: 0

 iSCC Total electronic   Diff electronic      SCC error    
    1    0.00000000E+00    0.00000000E+00    0.16591498E+01
    2   -0.62945067E+02   -0.62945067E+02    0.36829243E+00
    3   -0.63119115E+02   -0.17404794E+00    0.25816849E+00
    4   -0.63140537E+02   -0.21421347E-01    0.47483808E-02
    5   -0.63161173E+02   -0.20636814E-01    0.22724188E-02
    6   -0.63161178E+02   -0.48030807E-05    0.11460126E-02
    7   -0.63161178E+02   -0.15441954E-06    0.26904558E-03
    8   -0.63161179E+02   -0.46637869E-06    0.28499362E-04
    9   -0.63161179E+02   -0.13769238E-07    0.78207642E-05
   10   -0.63161179E+02   -0.37701398E-10    0.67133806E-05
   11   -0.63161179E+02   -0.23568703E-10    0.55126780E-07

Total Energy:                      -61.7563430226 H        -1680.4756 eV
Extrapolated to 0K:                -61.7563430226 H        -1680.4756 eV
Total Mermin free energy:          -61.7563430226 H        -1680.4756 eV
Force related energy:              -61.7563430226 H        -1680.4756 eV

Volume:                              0.225523E+04 au^3   0.334190E+03 A^3
Pressure:                           -0.152140E-05 au    -0.447612E+08 Pa
Maximal force component:             0.797593E-03
Averaged force norm:                 0.280613E-03
Maximal Lattice force component:     0.234593E-03 au
Averaged lattice force norm:         0.233097E-03 au
>> Charges saved for restart in charges.bin

--------------------------------------------------------------------------------

***  Geometry step: 1, Lattice step: 0

 iSCC Total electronic   Diff electronic      SCC error    
    1   -0.63161179E+02    0.00000000E+00    0.16664445E-03
    2   -0.63161178E+02    0.61188319E-06    0.69342127E-04
    3   -0.63161178E+02   -0.15947151E-07    0.85182256E-05
    4   -0.63161178E+02   -0.39809720E-08    0.13569355E-05
    5   -0.63161178E+02   -0.71906925E-11    0.69494505E-07

Total Energy:                      -61.7563447239 H        -1680.4756 eV
Extrapolated to 0K:                -61.7563447239 H        -1680.4756 eV
Total Mermin free energy:          -61.7563447239 H        -1680.4756 eV
Force related energy:              -61.7563447239 H        -1680.4756 eV

Volume:                              0.225523E+04 au^3   0.334190E+03 A^3
Pressure:                           -0.151848E-05 au    -0.446752E+08 Pa
Maximal force component:             0.663958E-03
Averaged force norm:                 0.225180E-03
Maximal Lattice force component:     0.233714E-03 au
Averaged lattice force norm:         0.232648E-03 au
>> Charges saved for restart in charges.bin

--------------------------------------------------------------------------------

***  Geometry step: 2, Lattice step: 0

 iSCC Total electronic   Diff electronic      SCC error    
    1   -0.63161178E+02    0.00000000E+00    0.66190656E-03
    2   -0.63161175E+02    0.29461859E-05    0.27530562E-03
    3   -0.63161176E+02   -0.24980058E-06    0.33856774E-04
    4   -0.63161176E+02   -0.62408596E-07    0.54606151E-05
    5   -0.63161176E+02   -0.11319656E-09    0.20992211E-06

Total Energy:                      -61.7563478995 H        -1680.4757 eV
Extrapolated to 0K:                -61.7563478995 H        -1680.4757 eV
Total Mermin free energy:          -61.7563478995 H        -1680.4757 eV
Force related energy:              -61.7563478995 H        -1680.4757 eV

Volume:                              0.225523E+04 au^3   0.334190E+03 A^3
Pressure:                           -0.151148E-05 au    -0.444691E+08 Pa
Maximal force component:             0.119536E-03
Averaged force norm:                 0.706283E-04
Maximal Lattice force component:     0.231604E-03 au
Averaged lattice force norm:         0.231574E-03 au
>> Charges saved for restart in charges.bin

--------------------------------------------------------------------------------

***  Geometry step: 3, Lattice step: 0

 iSCC Total electronic   Diff electronic      SCC error    
    1   -0.63161176E+02    0.00000000E+00    0.44215841E-04
    2   -0.63161175E+02    0.61754147E-06    0.19019804E-04
    3   -0.63161175E+02   -0.11897399E-08    0.13749772E-05
    4   -0.63161175E+02   -0.29448444E-09    0.19552664E-06

Total Energy:                      -61.7563483387 H        -1680.4757 eV
Extrapolated to 0K:                -61.7563483387 H        -1680.4757 eV
Total Mermin free energy:          -61.7563483387 H        -1680.4757 eV
Force related energy:              -61.7563483387 H        -1680.4757 eV

Volume:                              0.225523E+04 au^3   0.334190E+03 A^3
Pressure:                           -0.150983E-05 au    -0.444206E+08 Pa
Maximal force component:             0.662437E-04
Averaged force norm:                 0.408819E-04
Maximal Lattice force component:     0.231346E-03 au
Averaged lattice force norm:         0.231321E-03 au
>> Charges saved for restart in charges.bin

--------------------------------------------------------------------------------

***  Geometry step: 4, Lattice step: 0

 iSCC Total electronic   Diff electronic      SCC error    
    1   -0.63161175E+02    0.00000000E+00    0.19552664E-06

Total Energy:                      -61.7563483387 H        -1680.4757 eV
Extrapolated to 0K:                -61.7563483387 H        -1680.4757 eV
Total Mermin free energy:          -61.7563483387 H        -1680.4757 eV
Force related energy:              -61.7563483387 H        -1680.4757 eV

Volume:                              0.225523E+04 au^3   0.334190E+03 A^3
Pressure:                           -0.150983E-05 au    -0.444206E+08 Pa
Maximal force component:             0.662437E-04
Averaged force norm:                 0.408819E-04
Maximal Lattice force component:     0.231346E-03 au
Averaged lattice force norm:         0.231321E-03 au
>> Charges saved for restart in charges.bin

--------------------------------------------------------------------------------

***  Geometry step: 5, Lattice step: 1

 iSCC Total electronic   Diff electronic      SCC error    
    1   -0.63161175E+02    0.00000000E+00    0.31982076E-03
    2   -0.63164176E+02   -0.30006429E-02    0.26661002E-03
    3   -0.63164176E+02   -0.45159751E-08    0.59571381E-04
    4   -0.63164176E+02   -0.42591779E-08    0.45510896E-06

Total Energy:                      -61.7563469214 H        -1680.4757 eV
Extrapolated to 0K:                -61.7563469214 H        -1680.4757 eV
Total Mermin free energy:          -61.7563469214 H        -1680.4757 eV
Force related energy:              -61.7563469214 H        -1680.4757 eV

Volume:                              0.225366E+04 au^3   0.333958E+03 A^3
Pressure:                            0.342349E-05 au     0.100722E+09 Pa
Maximal force component:             0.657254E-04
Averaged force norm:                 0.407133E-04
Maximal Lattice force component:     0.524278E-03 au
Averaged lattice force norm:         0.524272E-03 au
>> Charges saved for restart in charges.bin

--------------------------------------------------------------------------------

***  Geometry step: 6, Lattice step: 1

 iSCC Total electronic   Diff electronic      SCC error    
    1   -0.63164176E+02    0.00000000E+00    0.45510896E-06

Total Energy:                      -61.7563469214 H        -1680.4757 eV
Extrapolated to 0K:                -61.7563469214 H        -1680.4757 eV
Total Mermin free energy:          -61.7563469214 H        -1680.4757 eV
Force related energy:              -61.7563469214 H        -1680.4757 eV

Volume:                              0.225366E+04 au^3   0.333958E+03 A^3
Pressure:                            0.342349E-05 au     0.100722E+09 Pa
Maximal force component:             0.657254E-04
Averaged force norm:                 0.407133E-04
Maximal Lattice force component:     0.524278E-03 au
Averaged lattice force norm:         0.524272E-03 au
>> Charges saved for restart in charges.bin

--------------------------------------------------------------------------------

***  Geometry step: 7, Lattice step: 2

 iSCC Total electronic   Diff electronic      SCC error    
    1   -0.63164176E+02    0.00000000E+00    0.15992126E-03
    2   -0.63162675E+02    0.15001856E-02    0.13332958E-03
    3   -0.63162675E+02   -0.11364634E-08    0.29884470E-04
    4   -0.63162675E+02   -0.10717756E-08    0.23484515E-06

Total Energy:                      -61.7563485946 H        -1680.4757 eV
Extrapolated to 0K:                -61.7563485946 H        -1680.4757 eV
Total Mermin free energy:          -61.7563485946 H        -1680.4757 eV
Force related energy:              -61.7563485946 H        -1680.4757 eV

Volume:                              0.225445E+04 au^3   0.334074E+03 A^3
Pressure:                            0.955331E-06 au     0.281068E+08 Pa
Maximal force component:             0.659935E-04
Averaged force norm:                 0.407957E-04
Maximal Lattice force component:     0.146352E-03 au
Averaged lattice force norm:         0.146333E-03 au
>> Charges saved for restart in charges.bin

--------------------------------------------------------------------------------

***  Geometry step: 8, Lattice step: 2

 iSCC Total electronic   Diff electronic      SCC error    
    1   -0.63162675E+02    0.00000000E+00    0.23484515E-06

Total Energy:                      -61.7563485946 H        -1680.4757 eV
Extrapolated to 0K:                -61.7563485946 H        -1680.4757 eV
Total Mermin free energy:          -61.7563485946 H        -1680.4757 eV
Force related energy:              -61.7563485946 H        -1680.4757 eV

Volume:                              0.225445E+04 au^3   0.334074E+03 A^3
Pressure:                            0.955331E-06 au     0.281068E+08 Pa
Maximal force component:             0.659935E-04
Averaged force norm:                 0.407957E-04
Maximal Lattice force component:     0.146352E-03 au
Averaged lattice force norm:         0.146333E-03 au
>> Charges saved for restart in charges.bin

--------------------------------------------------------------------------------

***  Geometry step: 9, Lattice step: 3

 iSCC Total electronic   Diff electronic      SCC error    
    1   -0.63162675E+02    0.00000000E+00    0.61970302E-04
    2   -0.63162094E+02    0.58136575E-03    0.51654979E-04
    3   -0.63162094E+02   -0.16855495E-09    0.11512693E-04
    4   -0.63162094E+02   -0.15888446E-09    0.13728670E-06

Total Energy:                      -61.7563487244 H        -1680.4758 eV
Extrapolated to 0K:                -61.7563487244 H        -1680.4758 eV
Total Mermin free energy:          -61.7563487244 H        -1680.4758 eV
Force related energy:              -61.7563487244 H        -1680.4758 eV

Volume:                              0.225475E+04 au^3   0.334119E+03 A^3
Pressure:                            0.122280E-09 au     0.359760E+04 Pa
Maximal force component:             0.660994E-04
Averaged force norm:                 0.408272E-04
Maximal Lattice force component:     0.225407E-07 au
Averaged lattice force norm:         0.194910E-07 au
>> Charges saved for restart in charges.bin

--------------------------------------------------------------------------------

***  Geometry step: 10, Lattice step: 3

 iSCC Total electronic   Diff electronic      SCC error    
    1   -0.63162094E+02    0.00000000E+00    0.13728670E-06

Total Energy:                      -61.7563487244 H        -1680.4758 eV
Extrapolated to 0K:                -61.7563487244 H        -1680.4758 eV
Total Mermin free energy:          -61.7563487244 H        -1680.4758 eV
Force related energy:              -61.7563487244 H        -1680.4758 eV

Volume:                              0.225475E+04 au^3   0.334119E+03 A^3
Pressure:                            0.122280E-09 au     0.359760E+04 Pa
Maximal force component:             0.660994E-04
Averaged force norm:                 0.408272E-04
Maximal Lattice force component:     0.225407E-07 au
Averaged lattice force norm:         0.194910E-07 au
>> Charges saved for restart in charges.bin

Geometry converged

--------------------------------------------------------------------------------
DFTB+ running times                          cpu [s]             wall clock [s]
--------------------------------------------------------------------------------
Pre-SCC initialisation                 +       3.36 (  2.9%)       1.04 (  4.6%)
SCC                                    +      93.42 ( 79.7%)      17.73 ( 79.2%)
Post-SCC processing                    +      20.36 ( 17.4%)       3.61 ( 16.1%)
Post-geometry optimisation             +       0.07 (  0.1%)       0.01 (  0.0%)
--------------------------------------------------------------------------------
Missing                                +       0.00 (  0.0%)       0.00 (  0.0%)
Total                                  =     117.21 (100.0%)      22.38 (100.0%)
--------------------------------------------------------------------------------
