|===============================================================================
|
|  DFTB+ release 21.2
|
|  Copyright (C) 2006 - 2021  DFTB+ developers group
|
|===============================================================================
|
|  When publishing results obtained with DFTB+, please cite the following
|  reference:
|
|  * DFTB+, a software package for efficient approximate density functional
|    theory based atomistic simulations, J. Chem. Phys. 152, 124101 (2020).
|    [doi: 10.1063/1.5143190]
|
|  You should also cite additional publications crediting the parametrization
|  data you use. Please consult the documentation of the SK-files for the
|  references.
|
|===============================================================================

Reading input file 'dftb_in.hsd'
Parser version: 10

--------------------------------------------------------------------------------
Reading SK-files:
../../../SKF-FILES/REFITTED/Ce-Ce.skf
../../../SKF-FILES/REFITTED/Ce-O.skf
../../../SKF-FILES/REFITTED/O-O.skf
Done.
WARNING!
-> This driver is deprecated and will be removed in future versions.
Please use the GeometryOptimization driver instead.
Path: dftbplusinput/Driver/LBFGS
Line: 33-50 (File: dftb_in.hsd)



Processed input in HSD format written to 'dftb_pin.hsd'

Starting initialization...
--------------------------------------------------------------------------------
OpenMP threads:              8
Chosen random seed:          1172969315
Mode:                        LBFGS relaxation
Self consistent charges:     Yes
SCC-tolerance:                 0.100000E-05
Max. scc iterations:                  10000
Shell resolved Hubbard:      Yes
Orbitally dependant functional:   Yes
Orbital functional:          FLL
Spin polarisation:           No
Nr. of up electrons:            64.000000
Nr. of down electrons:          64.000000
Periodic boundaries:         Yes
Lattice optimisation:        Yes
Pressure:                        0.000000
Electronic solver:           Relatively robust
Mixer:                       Broyden mixer
Mixing parameter:                  0.200000
Maximal SCC-cycles:                   10000
Nr. of chrg. vec. in memory:          10000
Nr. of moved atoms:                      24
Max. nr. of geometry steps:               0
Force tolerance:               0.100000E-03
Electronic temperature:        0.633363E-03 H      0.172347E-01 eV
Initial charges:             Set automatically (system chrg:   0.000E+00)
Included shells:            Ce:  s, p, d
                             O:  s, p
K-points and weights:           1:  0.000000  0.000000  0.000000     0.015625
                                2:  0.000000  0.000000  0.250000     0.031250
                                3:  0.000000  0.000000  0.500000     0.015625
                                4:  0.000000  0.250000  0.000000     0.031250
                                5:  0.000000  0.250000  0.250000     0.031250
                                6:  0.000000  0.250000  0.500000     0.031250
                                7:  0.000000  0.250000  0.750000     0.031250
                                8:  0.000000  0.500000  0.000000     0.015625
                                9:  0.000000  0.500000  0.250000     0.031250
                               10:  0.000000  0.500000  0.500000     0.015625
                               11:  0.250000  0.000000  0.000000     0.031250
                               12:  0.250000  0.000000  0.250000     0.031250
                               13:  0.250000  0.000000  0.500000     0.031250
                               14:  0.250000  0.000000  0.750000     0.031250
                               15:  0.250000  0.250000  0.000000     0.031250
                               16:  0.250000  0.250000  0.250000     0.031250
                               17:  0.250000  0.250000  0.500000     0.031250
                               18:  0.250000  0.250000  0.750000     0.031250
                               19:  0.250000  0.500000  0.000000     0.031250
                               20:  0.250000  0.500000  0.250000     0.031250
                               21:  0.250000  0.500000  0.500000     0.031250
                               22:  0.250000  0.500000  0.750000     0.031250
                               23:  0.250000  0.750000  0.000000     0.031250
                               24:  0.250000  0.750000  0.250000     0.031250
                               25:  0.250000  0.750000  0.500000     0.031250
                               26:  0.250000  0.750000  0.750000     0.031250
                               27:  0.500000  0.000000  0.000000     0.015625
                               28:  0.500000  0.000000  0.250000     0.031250
                               29:  0.500000  0.000000  0.500000     0.015625
                               30:  0.500000  0.250000  0.000000     0.031250
                               31:  0.500000  0.250000  0.250000     0.031250
                               32:  0.500000  0.250000  0.500000     0.031250
                               33:  0.500000  0.250000  0.750000     0.031250
                               34:  0.500000  0.500000  0.000000     0.015625
                               35:  0.500000  0.500000  0.250000     0.031250
                               36:  0.500000  0.500000  0.500000     0.015625

K-points in absolute space:     1:  0.000000  0.000000  0.000000
                                2:  0.012009 -0.012009  0.012009
                                3:  0.024019 -0.024019  0.024019
                                4: -0.012009  0.012009  0.012009
                                5:  0.000000  0.000000  0.024019
                                6:  0.012009 -0.012009  0.036028
                                7:  0.024019 -0.024019  0.048038
                                8: -0.024019  0.024019  0.024019
                                9: -0.012009  0.012009  0.036028
                               10:  0.000000  0.000000  0.048038
                               11:  0.012009  0.012009 -0.012009
                               12:  0.024019  0.000000  0.000000
                               13:  0.036028 -0.012009  0.012009
                               14:  0.048038 -0.024019  0.024019
                               15:  0.000000  0.024019  0.000000
                               16:  0.012009  0.012009  0.012009
                               17:  0.024019  0.000000  0.024019
                               18:  0.036028 -0.012009  0.036028
                               19: -0.012009  0.036028  0.012009
                               20:  0.000000  0.024019  0.024019
                               21:  0.012009  0.012009  0.036028
                               22:  0.024019  0.000000  0.048038
                               23: -0.024019  0.048038  0.024019
                               24: -0.012009  0.036028  0.036028
                               25:  0.000000  0.024019  0.048038
                               26:  0.012009  0.012009  0.060047
                               27:  0.024019  0.024019 -0.024019
                               28:  0.036028  0.012009 -0.012009
                               29:  0.048038  0.000000  0.000000
                               30:  0.012009  0.036028 -0.012009
                               31:  0.024019  0.024019  0.000000
                               32:  0.036028  0.012009  0.012009
                               33:  0.048038  0.000000  0.024019
                               34:  0.000000  0.048038  0.000000
                               35:  0.012009  0.036028  0.012009
                               36:  0.024019  0.024019  0.024019

Extra options:
                             Mulliken analysis
Force type                   original
U-J coupling constants: Ce
Shells: 3               UJ:0.0919

--------------------------------------------------------------------------------

***  Geometry step: 0, Lattice step: 0

 iSCC Total electronic   Diff electronic      SCC error    
    1    0.00000000E+00    0.00000000E+00    0.16591498E+01
    2   -0.62945067E+02   -0.62945067E+02    0.36829243E+00
    3   -0.63119115E+02   -0.17404794E+00    0.25816849E+00
    4   -0.63140537E+02   -0.21421347E-01    0.47483808E-02
    5   -0.63161173E+02   -0.20636814E-01    0.22724188E-02
    6   -0.63161178E+02   -0.48030807E-05    0.11460126E-02
    7   -0.63161178E+02   -0.15441954E-06    0.26904558E-03
    8   -0.63161179E+02   -0.46637869E-06    0.28499362E-04
    9   -0.63161179E+02   -0.13769238E-07    0.78207642E-05
   10   -0.63161179E+02   -0.37701398E-10    0.67133806E-05
   11   -0.63161179E+02   -0.23568703E-10    0.55126780E-07

Total Energy:                      -61.7563421457 H        -1680.4756 eV
Extrapolated to 0K:                -61.7563421457 H        -1680.4756 eV
Total Mermin free energy:          -61.7563421457 H        -1680.4756 eV
Force related energy:              -61.7563421457 H        -1680.4756 eV

Volume:                              0.225523E+04 au^3   0.334190E+03 A^3
Pressure:                           -0.152254E-05 au    -0.447946E+08 Pa
Maximal force component:             0.797587E-03
Averaged force norm:                 0.280612E-03
Maximal Lattice force component:     0.166005E-03 au
Averaged lattice force norm:         0.285341E-03 au
>> Charges saved for restart in charges.bin

Geometry converged

--------------------------------------------------------------------------------
DFTB+ running times                          cpu [s]             wall clock [s]
--------------------------------------------------------------------------------
Pre-SCC initialisation                 +       0.77 (  2.8%)       0.37 (  6.8%)
SCC                                    +      25.04 ( 90.8%)       4.78 ( 87.5%)
Post-SCC processing                    +       1.71 (  6.2%)       0.30 (  5.6%)
Post-geometry optimisation             +       0.05 (  0.2%)       0.01 (  0.1%)
--------------------------------------------------------------------------------
Missing                                +       0.00 (  0.0%)       0.00 (  0.0%)
Total                                  =      27.57 (100.0%)       5.47 (100.0%)
--------------------------------------------------------------------------------
